# vtk DataFile Version 2.0
test
ASCII
DATASET STRUCTURED_POINTS
DIMENSIONS 128 128 1
ORIGIN 0 0 0
SPACING 1 1 1
POINT_DATA 16384
SCALARS values float
LOOKUP_TABLE default
0.000619 -0.002415 -0.001093 -0.000923 0.000804 0.002201 0.004591 0.006276 0.008407 0.009655 0.011256 0.013084 0.014841 0.016595 0.018021 0.019858 0.021314 0.022493 0.024160 0.025295 0.026506 0.027718 0.028560 0.029746 0.030622 0.031275 0.032149 0.032769 0.033226 0.033894 0.034299 0.034587 0.035070 0.035300 0.035543 0.035895 0.036121 0.036311 0.036612 0.036811 0.037011 0.037245 0.037449 0.037650 0.037797 0.037852 0.037853 0.037689 0.037273 0.036875 0.036356 0.035464 0.034994 0.036110 0.037815 0.037386 0.035650 0.036067 0.036721 0.035831 0.036223 0.036171 0.035884 0.036227 0.035952 0.036376 0.036232 0.036561 0.036706 0.036993 0.037077 0.037466 0.037704 0.038160 0.038417 0.038866 0.039168 0.039582 0.039875 0.040184 0.040506 0.040746 0.040999 0.041147 0.041334 0.041511 0.041620 0.041714 0.041763 0.041800 0.041817 0.041679 0.041558 0.041338 0.041023 0.040672 0.040113 0.039560 0.038903 0.038103 0.037328 0.036356 0.035357 0.034362 0.033194 0.032032 0.030848 0.029575 0.028328 0.026977 0.025537 0.024135 0.022694 0.021183 0.019673 0.018071 0.016396 0.014754 0.013063 0.011256 0.009325 0.007226 0.005099 0.003213 0.001703 0.000603 0.000045 0.000090
-0.000200 -0.000673 -0.000093 0.000452 0.001519 0.002715 0.004235 0.005644 0.007107 0.008342 0.009642 0.011010 0.012369 0.013701 0.014939 0.016231 0.017397 0.018462 0.019592 0.020570 0.021512 0.022407 0.023184 0.023991 0.024685 0.025281 0.025881 0.026383 0.026813 0.027251 0.027597 0.027886 0.028191 0.028418 0.028630 0.028852 0.029033 0.029194 0.029369 0.029515 0.029655 0.029798 0.029930 0.030051 0.030138 0.030168 0.030137 0.030003 0.029749 0.029444 0.029076 0.028662 0.028504 0.028887 0.029411 0.029295 0.028779 0.028770 0.028874 0.028648 0.028680 0.028630 0.028534 0.028580 0.028522 0.028624 0.028628 0.028750 0.028853 0.028996 0.029111 0.029311 0.029503 0.029755 0.029974 0.030238 0.030473 0.030728 0.030950 0.031165 0.031372 0.031549 0.031710 0.031834 0.031955 0.032061 0.032138 0.032193 0.032222 0.032229 0.032205 0.032117 0.031998 0.031821 0.031581 0.031285 0.030897 0.030463 0.029960 0.029381 0.028762 0.028059 0.027311 0.026529 0.025675 0.024792 0.023880 0.022924 0.021946 0.020919 0.019848 0.018766 0.017658 0.016515 0.015348 0.014136 0.012885 0.011620 0.010319 0.008957 0.007534 0.006061 0.004619 0.003327 0.002255 0.001406 0.000729 0.000049
-0.000707 0.000184 0.000699 0.001162 0.001809 0.002639 0.003614 0.004628 0.005640 0.006612 0.007586 0.008577 0.009566 0.010533 0.011468 0.012380 0.013243 0.014060 0.014852 0.015591 0.016287 0.016939 0.017541 0.018110 0.018628 0.019093 0.019523 0.019905 0.020246 0.020557 0.020828 0.021064 0.021278 0.021463 0.021628 0.021780 0.021914 0.022033 0.022143 0.022242 0.022332 0.022418 0.022497 0.022566 0.022613 0.022626 0.022596 0.022506 0.022354 0.022156 0.021929 0.021722 0.021639 0.021729 0.021847 0.021801 0.021648 0.021574 0.021545 0.021482 0.021444 0.021400 0.021353 0.021330 0.021312 0.021324 0.021343 0.021390 0.021452 0.021528 0.021615 0.021727 0.021855 0.022001 0.022152 0.022312 0.022472 0.022631 0.022782 0.022925 0.023059 0.023179 0.023285 0.023375 0.023453 0.023519 0.023569 0.023601 0.023615 0.023610 0.023579 0.023515 0.023418 0.023284 0.023108 0.022887 0.022617 0.022302 0.021941 0.021533 0.021084 0.020589 0.020055 0.019487 0.018882 0.018246 0.017583 0.016893 0.016176 0.015430 0.014658 0.013866 0.013055 0.012221 0.011364 0.010481 0.009576 0.008653 0.007710 0.006746 0.005769 0.004809 0.003912 0.003134 0.002497 0.001963 0.001409 0.000608
0.000969 0.001304 0.001476 0.001638 0.001915 0.002347 0.002905 0.003533 0.004191 0.004855 0.005526 0.006204 0.006879 0.007543 0.008187 0.008810 0.009405 0.009974 0.010517 0.011031 0.011516 0.011970 0.012395 0.012790 0.013155 0.013487 0.013791 0.014066 0.014313 0.014536 0.014733 0.014908 0.015062 0.015198 0.015318 0.015424 0.015517 0.015598 0.015670 0.015732 0.015788 0.015837 0.015881 0.015916 0.015940 0.015944 0.015923 0.015870 0.015784 0.015671 0.015544 0.015431 0.015366 0.015357 0.015358 0.015319 0.015251 0.015198 0.015162 0.015127 0.015095 0.015061 0.015027 0.015000 0.014983 0.014978 0.014986 0.015007 0.015040 0.015084 0.015138 0.015204 0.015282 0.015368 0.015461 0.015558 0.015657 0.015755 0.015851 0.015942 0.016027 0.016105 0.016173 0.016233 0.016284 0.016325 0.016356 0.016375 0.016380 0.016371 0.016344 0.016297 0.016227 0.016132 0.016010 0.015858 0.015675 0.015462 0.015218 0.014943 0.014639 0.014306 0.013946 0.013560 0.013149 0.012716 0.012263 0.011788 0.011294 0.010780 0.010247 0.009698 0.009133 0.008553 0.007956 0.007343 0.006717 0.006082 0.005443 0.004812 0.004207 0.003658 0.003203 0.002871 0.002655 0.002496 0.002261 0.001752
0.002120 0.002364 0.002279 0.002109 0.002018 0.002075 0.002271 0.002570 0.002933 0.003331 0.003751 0.004182 0.004614 0.005041 0.005456 0.005858 0.006244 0.006614 0.006968 0.007304 0.007621 0.007920 0.008201 0.008462 0.008704 0.008927 0.009131 0.009317 0.009485 0.009637 0.009773 0.009894 0.010000 0.010094 0.010175 0.010246 0.010308 0.010360 0.010405 0.010443 0.010475 0.010502 0.010524 0.010540 0.010550 0.010550 0.010538 0.010510 0.010465 0.010405 0.010338 0.010274 0.010226 0.010194 0.010166 0.010131 0.010092 0.010058 0.010033 0.010012 0.009990 0.009966 0.009942 0.009921 0.009906 0.009899 0.009900 0.009910 0.009927 0.009952 0.009984 0.010023 0.010069 0.010119 0.010173 0.010230 0.010288 0.010347 0.010404 0.010460 0.010512 0.010560 0.010603 0.010641 0.010672 0.010698 0.010716 0.010726 0.010727 0.010719 0.010698 0.010665 0.010618 0.010555 0.010475 0.010377 0.010259 0.010123 0.009968 0.009793 0.009599 0.009387 0.009157 0.008910 0.008647 0.008368 0.008075 0.007767 0.007445 0.007110 0.006762 0.006402 0.006031 0.005648 0.005255 0.004852 0.004444 0.004036 0.003639 0.003271 0.002957 0.002735 0.002638 0.002690 0.002874 0.003120 0.003292 0.003209
0.003517 0.003533 0.003161 0.002659 0.002215 0.001927 0.001811 0.001837 0.001965 0.002157 0.002387 0.002637 0.002895 0.003152 0.003404 0.003648 0.003884 0.004111 0.004328 0.004535 0.004731 0.004916 0.005090 0.005253 0.005404 0.005544 0.005673 0.005791 0.005898 0.005995 0.006083 0.006161 0.006229 0.006289 0.006341 0.006385 0.006423 0.006455 0.006482 0.006504 0.006521 0.006535 0.006545 0.006551 0.006554 0.006553 0.006545 0.006531 0.006509 0.006480 0.006445 0.006410 0.006378 0.006349 0.006322 0.006296 0.006272 0.006252 0.006238 0.006225 0.006211 0.006196 0.006180 0.006165 0.006154 0.006148 0.006147 0.006151 0.006161 0.006175 0.006194 0.006216 0.006242 0.006270 0.006301 0.006333 0.006367 0.006400 0.006433 0.006466 0.006496 0.006525 0.006550 0.006573 0.006591 0.006606 0.006616 0.006621 0.006620 0.006613 0.006599 0.006578 0.006547 0.006508 0.006459 0.006399 0.006328 0.006245 0.006152 0.006047 0.005930 0.005802 0.005664 0.005515 0.005355 0.005186 0.005007 0.004819 0.004622 0.004416 0.004202 0.003980 0.003749 0.003512 0.003269 0.003021 0.002773 0.002534 0.002316 0.002145 0.002054 0.002084 0.002278 0.002661 0.003218 0.003874 0.004477 0.004817
0.004855 0.004775 0.004134 0.003301 0.002523 0.001925 0.001541 0.001349 0.001298 0.001340 0.001437 0.001563 0.001703 0.001848 0.001991 0.002131 0.002267 0.002398 0.002524 0.002644 0.002758 0.002866 0.002967 0.003062 0.003151 0.003233 0.003309 0.003379 0.003442 0.003500 0.003553 0.003599 0.003640 0.003676 0.003706 0.003732 0.003754 0.003773 0.003787 0.003799 0.003808 0.003814 0.003818 0.003820 0.003820 0.003818 0.003813 0.003806 0.003795 0.003781 0.003764 0.003745 0.003726 0.003706 0.003688 0.003672 0.003658 0.003648 0.003640 0.003633 0.003625 0.003616 0.003606 0.003596 0.003589 0.003584 0.003583 0.003585 0.003590 0.003598 0.003608 0.003621 0.003636 0.003651 0.003668 0.003686 0.003705 0.003723 0.003742 0.003760 0.003777 0.003793 0.003807 0.003820 0.003830 0.003838 0.003843 0.003845 0.003843 0.003838 0.003829 0.003816 0.003798 0.003774 0.003746 0.003711 0.003670 0.003623 0.003570 0.003510 0.003444 0.003372 0.003293 0.003208 0.003117 0.003020 0.002918 0.002810 0.002696 0.002577 0.002453 0.002324 0.002191 0.002053 0.001912 0.001771 0.001634 0.001511 0.001421 0.001391 0.001463 0.001689 0.002121 0.002795 0.003701 0.004764 0.005826 0.006662
0.006955 0.006254 0.005197 0.004016 0.002919 0.002044 0.001435 0.001068 0.000884 0.000821 0.000830 0.000877 0.000943 0.001017 0.001093 0.001169 0.001243 0.001314 0.001382 0.001448 0.001510 0.001569 0.001624 0.001676 0.001724 0.001770 0.001811 0.001850 0.001885 0.001917 0.001946 0.001972 0.001994 0.002014 0.002031 0.002045 0.002057 0.002066 0.002074 0.002080 0.002084 0.002086 0.002087 0.002087 0.002086 0.002085 0.002082 0.002078 0.002073 0.002066 0.002058 0.002048 0.002037 0.002026 0.002016 0.002007 0.002000 0.001995 0.001991 0.001988 0.001983 0.001978 0.001972 0.001967 0.001962 0.001959 0.001958 0.001959 0.001961 0.001966 0.001971 0.001978 0.001986 0.001995 0.002004 0.002014 0.002024 0.002034 0.002044 0.002053 0.002062 0.002071 0.002078 0.002085 0.002090 0.002094 0.002096 0.002097 0.002095 0.002092 0.002086 0.002078 0.002068 0.002055 0.002039 0.002020 0.001998 0.001973 0.001945 0.001912 0.001877 0.001838 0.001796 0.001750 0.001701 0.001649 0.001594 0.001536 0.001475 0.001410 0.001343 0.001273 0.001201 0.001126 0.001051 0.000977 0.000912 0.000866 0.000860 0.000929 0.001122 0.001503 0.002135 0.003068 0.004303 0.005771 0.007313 0.008700
0.008678 0.007698 0.006295 0.004772 0.003374 0.002249 0.001448 0.000941 0.000657 0.000521 0.000473 0.000472 0.000494 0.000527 0.000564 0.000602 0.000639 0.000675 0.000710 0.000744 0.000776 0.000806 0.000834 0.000860 0.000885 0.000908 0.000929 0.000949 0.000967 0.000984 0.000998 0.001012 0.001023 0.001033 0.001042 0.001049 0.001055 0.001059 0.001063 0.001066 0.001067 0.001068 0.001068 0.001068 0.001067 0.001065 0.001064 0.001062 0.001059 0.001056 0.001052 0.001047 0.001041 0.001036 0.001031 0.001027 0.001024 0.001022 0.001020 0.001018 0.001016 0.001013 0.001010 0.001007 0.001004 0.001002 0.001002 0.001002 0.001003 0.001005 0.001008 0.001012 0.001016 0.001021 0.001025 0.001031 0.001036 0.001041 0.001046 0.001051 0.001056 0.001060 0.001064 0.001067 0.001069 0.001071 0.001072 0.001071 0.001070 0.001068 0.001065 0.001061 0.001055 0.001048 0.001040 0.001031 0.001019 0.001007 0.000992 0.000976 0.000958 0.000938 0.000917 0.000894 0.000869 0.000843 0.000815 0.000786 0.000755 0.000722 0.000688 0.000653 0.000616 0.000579 0.000542 0.000509 0.000487 0.000488 0.000538 0.000677 0.000961 0.001467 0.002275 0.003446 0.004997 0.006862 0.008882 0.010816
0.010537 0.009186 0.007413 0.005552 0.003865 0.002510 0.001540 0.000916 0.000554 0.000366 0.000280 0.000250 0.000247 0.000257 0.000273 0.000290 0.000308 0.000325 0.000342 0.000358 0.000373 0.000387 0.000401 0.000413 0.000425 0.000436 0.000446 0.000455 0.000464 0.000472 0.000479 0.000485 0.000491 0.000495 0.000499 0.000503 0.000505 0.000507 0.000509 0.000510 0.000511 0.000511 0.000511 0.000510 0.000510 0.000509 0.000508 0.000507 0.000506 0.000504 0.000502 0.000499 0.000497 0.000494 0.000492 0.000491 0.000489 0.000489 0.000488 0.000487 0.000486 0.000485 0.000483 0.000482 0.000480 0.000479 0.000479 0.000478 0.000479 0.000480 0.000482 0.000483 0.000486 0.000488 0.000490 0.000493 0.000496 0.000498 0.000501 0.000503 0.000505 0.000507 0.000509 0.000511 0.000512 0.000512 0.000512 0.000512 0.000511 0.000510 0.000508 0.000506 0.000503 0.000500 0.000496 0.000492 0.000486 0.000480 0.000473 0.000465 0.000457 0.000448 0.000438 0.000427 0.000415 0.000403 0.000389 0.000376 0.000361 0.000345 0.000329 0.000313 0.000295 0.000278 0.000263 0.000253 0.000255 0.000286 0.000372 0.000561 0.000919 0.001533 0.002499 0.003895 0.005749 0.008003 0.010499 0.013001
0.012537 0.010709 0.008541 0.006344 0.004378 0.002807 0.001681 0.000953 0.000526 0.000297 0.000186 0.000138 0.000122 0.000120 0.000124 0.000131 0.000139 0.000146 0.000154 0.000161 0.000167 0.000174 0.000180 0.000185 0.000190 0.000195 0.000200 0.000204 0.000208 0.000211 0.000214 0.000217 0.000220 0.000222 0.000223 0.000225 0.000226 0.000227 0.000227 0.000228 0.000228 0.000228 0.000228 0.000228 0.000227 0.000227 0.000226 0.000226 0.000225 0.000224 0.000223 0.000222 0.000221 0.000220 0.000219 0.000219 0.000218 0.000218 0.000218 0.000218 0.000217 0.000217 0.000216 0.000215 0.000214 0.000213 0.000213 0.000213 0.000213 0.000214 0.000214 0.000215 0.000216 0.000218 0.000219 0.000220 0.000221 0.000222 0.000224 0.000225 0.000226 0.000227 0.000228 0.000228 0.000229 0.000229 0.000229 0.000228 0.000228 0.000227 0.000226 0.000225 0.000224 0.000223 0.000221 0.000219 0.000216 0.000214 0.000211 0.000207 0.000203 0.000199 0.000195 0.000190 0.000185 0.000179 0.000173 0.000167 0.000161 0.000154 0.000147 0.000140 0.000132 0.000126 0.000121 0.000123 0.000139 0.000188 0.000300 0.000528 0.000948 0.001661 0.002777 0.004390 0.006538 0.009166 0.012108 0.015112
0.014416 0.012186 0.009655 0.007139 0.004905 0.003127 0.001853 0.001027 0.000541 0.000278 0.000147 0.000087 0.000063 0.000055 0.000054 0.000055 0.000058 0.000061 0.000064 0.000067 0.000070 0.000073 0.000075 0.000077 0.000079 0.000081 0.000083 0.000085 0.000087 0.000088 0.000089 0.000090 0.000091 0.000092 0.000093 0.000094 0.000094 0.000094 0.000095 0.000095 0.000095 0.000095 0.000095 0.000094 0.000094 0.000094 0.000094 0.000094 0.000093 0.000093 0.000092 0.000092 0.000091 0.000091 0.000091 0.000091 0.000091 0.000091 0.000091 0.000090 0.000090 0.000090 0.000090 0.000089 0.000089 0.000088 0.000088 0.000088 0.000088 0.000088 0.000089 0.000089 0.000090 0.000090 0.000091 0.000091 0.000092 0.000092 0.000093 0.000093 0.000094 0.000094 0.000095 0.000095 0.000095 0.000095 0.000095 0.000095 0.000095 0.000094 0.000094 0.000093 0.000093 0.000092 0.000091 0.000091 0.000090 0.000088 0.000087 0.000086 0.000084 0.000083 0.000081 0.000079 0.000077 0.000074 0.000072 0.000069 0.000067 0.000064 0.000061 0.000058 0.000055 0.000054 0.000054 0.000062 0.000087 0.000147 0.000279 0.000541 0.001019 0.001826 0.003088 0.004913 0.007348 0.010339 0.013699 0.017131
0.016059 0.013578 0.010745 0.007933 0.005443 0.003463 0.002043 0.001122 0.000578 0.000283 0.000136 0.000067 0.000037 0.000026 0.000023 0.000022 0.000023 0.000024 0.000025 0.000026 0.000027 0.000028 0.000029 0.000030 0.000031 0.000032 0.000032 0.000033 0.000034 0.000034 0.000035 0.000035 0.000035 0.000036 0.000036 0.000036 0.000036 0.000036 0.000037 0.000037 0.000037 0.000037 0.000037 0.000036 0.000036 0.000036 0.000036 0.000036 0.000036 0.000036 0.000036 0.000035 0.000035 0.000035 0.000035 0.000035 0.000035 0.000035 0.000035 0.000035 0.000035 0.000035 0.000035 0.000034 0.000034 0.000034 0.000034 0.000034 0.000034 0.000034 0.000034 0.000034 0.000035 0.000035 0.000035 0.000035 0.000035 0.000036 0.000036 0.000036 0.000036 0.000036 0.000037 0.000037 0.000037 0.000037 0.000037 0.000037 0.000037 0.000036 0.000036 0.000036 0.000036 0.000036 0.000035 0.000035 0.000034 0.000034 0.000034 0.000033 0.000032 0.000032 0.000031 0.000030 0.000029 0.000029 0.000028 0.000027 0.000026 0.000025 0.000024 0.000023 0.000022 0.000022 0.000026 0.000037 0.000067 0.000136 0.000285 0.000578 0.001112 0.002012 0.003420 0.005456 0.008179 0.011530 0.015312 0.019213
0.017659 0.014941 0.011827 0.008733 0.005992 0.003811 0.002246 0.001229 0.000628 0.000302 0.000138 0.000061 0.000028 0.000015 0.000010 0.000009 0.000008 0.000009 0.000009 0.000009 0.000010 0.000010 0.000010 0.000011 0.000011 0.000011 0.000012 0.000012 0.000012 0.000012 0.000012 0.000013 0.000013 0.000013 0.000013 0.000013 0.000013 0.000013 0.000013 0.000013 0.000013 0.000013 0.000013 0.000013 0.000013 0.000013 0.000013 0.000013 0.000013 0.000013 0.000013 0.000013 0.000013 0.000012 0.000012 0.000012 0.000012 0.000012 0.000012 0.000012 0.000012 0.000012 0.000012 0.000012 0.000012 0.000012 0.000012 0.000012 0.000012 0.000012 0.000012 0.000012 0.000012 0.000012 0.000012 0.000013 0.000013 0.000013 0.000013 0.000013 0.000013 0.000013 0.000013 0.000013 0.000013 0.000013 0.000013 0.000013 0.000013 0.000013 0.000013 0.000013 0.000013 0.000013 0.000013 0.000012 0.000012 0.000012 0.000012 0.000012 0.000012 0.000011 0.000011 0.000011 0.000010 0.000010 0.000010 0.000010 0.000009 0.000009 0.000008 0.000008 0.000008 0.000010 0.000014 0.000028 0.000062 0.000139 0.000304 0.000628 0.001218 0.002212 0.003766 0.006018 0.009030 0.012746 0.016954 0.021316
0.019295 0.016319 0.012922 0.009547 0.006555 0.004170 0.002457 0.001344 0.000685 0.000327 0.000147 0.000062 0.000026 0.000011 0.000005 0.000003 0.000003 0.000003 0.000003 0.000003 0.000003 0.000003 0.000003 0.000004 0.000004 0.000004 0.000004 0.000004 0.000004 0.000004 0.000004 0.000004 0.000004 0.000004 0.000004 0.000004 0.000004 0.000004 0.000004 0.000004 0.000004 0.000004 0.000004 0.000004 0.000004 0.000004 0.000004 0.000004 0.000004 0.000004 0.000004 0.000004 0.000004 0.000004 0.000004 0.000004 0.000004 0.000004 0.000004 0.000004 0.000004 0.000004 0.000004 0.000004 0.000004 0.000004 0.000004 0.000004 0.000004 0.000004 0.000004 0.000004 0.000004 0.000004 0.000004 0.000004 0.000004 0.000004 0.000004 0.000004 0.000004 0.000004 0.000004 0.000004 0.000004 0.000004 0.000004 0.000004 0.000004 0.000004 0.000004 0.000004 0.000004 0.000004 0.000004 0.000004 0.000004 0.000004 0.000004 0.000004 0.000004 0.000004 0.000004 0.000004 0.000003 0.000003 0.000003 0.000003 0.000003 0.000003 0.000003 0.000003 0.000003 0.000005 0.000011 0.000026 0.000063 0.000148 0.000329 0.000684 0.001330 0.002421 0.004126 0.006598 0.009909 0.014000 0.018644 0.023477
0.020931 0.017737 0.014053 0.010386 0.007134 0.004542 0.002677 0.001464 0.000745 0.000354 0.000158 0.000066 0.000026 0.000010 0.000004 0.000002 0.000001 0.000001 0.000001 0.000001 0.000001 0.000001 0.000001 0.000001 0.000001 0.000001 0.000001 0.000001 0.000001 0.000001 0.000001 0.000001 0.000001 0.000001 0.000001 0.000001 0.000001 0.000001 0.000001 0.000001 0.000001 0.000001 0.000001 0.000001 0.000001 0.000001 0.000001 0.000001 0.000001 0.000001 0.000001 0.000001 0.000001 0.000001 0.000001 0.000001 0.000001 0.000001 0.000001 0.000001 0.000001 0.000001 0.000001 0.000001 0.000001 0.000001 0.000001 0.000001 0.000001 0.000001 0.000001 0.000001 0.000001 0.000001 0.000001 0.000001 0.000001 0.000001 0.000001 0.000001 0.000001 0.000001 0.000001 0.000001 0.000001 0.000001 0.000001 0.000001 0.000001 0.000001 0.000001 0.000001 0.000001 0.000001 0.000001 0.000001 0.000001 0.000001 0.000001 0.000001 0.000001 0.000001 0.000001 0.000001 0.000001 0.000001 0.000001 0.000001 0.000001 0.000001 0.000001 0.000001 0.000002 0.000004 0.000010 0.000026 0.000067 0.000160 0.000357 0.000744 0.001448 0.002637 0.004499 0.007199 0.010822 0.015307 0.020410 0.025731
0.022751 0.019262 0.015246 0.011261 0.007734 0.004924 0.002904 0.001588 0.000808 0.000384 0.000171 0.000071 0.000028 0.000010 0.000004 0.000001 0.000001 0.000000 0.000000 0.000000 0.000000 0.000000 0.000000 0.000000 0.000000 0.000000 0.000000 0.000000 0.000000 0.000000 0.000000 0.000000 0.000000 0.000000 0.000000 0.000000 0.000000 0.000000 0.000000 0.000000 0.000000 0.000000 0.000000 0.000000 0.000000 0.000000 0.000000 0.000000 0.000000 0.000000 0.000000 0.000000 0.000000 0.000000 0.000000 0.000000 0.000000 0.000000 0.000000 0.000000 0.000000 0.000000 0.000000 0.000000 0.000000 0.000000 0.000000 0.000000 0.000000 0.000000 0.000000 0.000000 0.000000 0.000000 0.000000 0.000000 0.000000 0.000000 0.000000 0.000000 0.000000 0.000000 0.000000 0.000000 0.000000 0.000000 0.000000 0.000000 0.000000 0.000000 0.000000 0.000000 0.000000 0.000000 0.000000 0.000000 0.000000 0.000000 0.000000 0.000000 0.000000 0.000000 0.000000 0.000000 0.000000 0.000000 0.000000 0.000000 0.000000 0.000000 0.000000 0.000001 0.000001 0.000004 0.000010 0.000028 0.000072 0.000173 0.000387 0.000806 0.001570 0.002861 0.004885 0.007824 0.011774 0.016679 0.022286 0.028172
0.024937 0.020941 0.016510 0.012173 0.008354 0.005319 0.003137 0.001716 0.000873 0.000414 0.000184 0.000076 0.000030 0.000011 0.000004 0.000001 0.000000 0.000000 0.000000 0.000000 0.000000 0.000000 0.000000 0.000000 0.000000 0.000000 0.000000 0.000000 0.000000 0.000000 0.000000 0.000000 0.000000 0.000000 0.000000 0.000000 0.000000 0.000000 0.000000 0.000000 0.000000 0.000000 0.000000 0.000000 0.000000 0.000000 0.000000 0.000000 0.000000 0.000000 0.000000 0.000000 0.000000 0.000000 0.000000 0.000000 0.000000 0.000000 0.000000 0.000000 0.000000 0.000000 0.000000 0.000000 0.000000 0.000000 0.000000 0.000000 0.000000 0.000000 0.000000 0.000000 0.000000 0.000000 0.000000 0.000000 0.000000 0.000000 0.000000 0.000000 0.000000 0.000000 0.000000 0.000000 0.000000 0.000000 0.000000 0.000000 0.000000 0.000000 0.000000 0.000000 0.000000 0.000000 0.000000 0.000000 0.000000 0.000000 0.000000 0.000000 0.000000 0.000000 0.000000 0.000000 0.000000 0.000000 0.000000 0.000000 0.000000 0.000000 0.000000 0.000000 0.000001 0.000004 0.000011 0.000030 0.000078 0.000187 0.000418 0.000871 0.001697 0.003093 0.005284 0.008472 0.012766 0.018119 0.024281 0.030841
0.027141 0.022679 0.017823 0.013115 0.008993 0.005723 0.003376 0.001847 0.000940 0.000446 0.000198 0.000082 0.000032 0.000011 0.000004 0.000001 0.000000 0.000000 0.000000 0.000000 0.000000 0.000000 0.000000 0.000000 0.000000 0.000000 0.000000 0.000000 0.000000 0.000000 0.000000 0.000000 0.000000 0.000000 0.000000 0.000000 0.000000 0.000000 0.000000 0.000000 0.000000 0.000000 0.000000 0.000000 0.000000 0.000000 0.000000 0.000000 0.000000 0.000000 0.000000 0.000000 0.000000 0.000000 0.000000 0.000000 0.000000 0.000000 0.000000 0.000000 0.000000 0.000000 0.000000 0.000000 0.000000 0.000000 0.000000 0.000000 0.000000 0.000000 0.000000 0.000000 0.000000 0.000000 0.000000 0.000000 0.000000 0.000000 0.000000 0.000000 0.000000 0.000000 0.000000 0.000000 0.000000 0.000000 0.000000 0.000000 0.000000 0.000000 0.000000 0.000000 0.000000 0.000000 0.000000 0.000000 0.000000 0.000000 0.000000 0.000000 0.000000 0.000000 0.000000 0.000000 0.000000 0.000000 0.000000 0.000000 0.000000 0.000000 0.000000 0.000000 0.000001 0.000004 0.000012 0.000032 0.000084 0.000201 0.000449 0.000937 0.001827 0.003333 0.005697 0.009142 0.013795 0.019612 0.026342 0.033557
0.029349 0.024443 0.019163 0.014080 0.009646 0.006138 0.003622 0.001982 0.001009 0.000479 0.000212 0.000088 0.000034 0.000012 0.000004 0.000001 0.000000 0.000000 0.000000 0.000000 0.000000 0.000000 0.000000 0.000000 0.000000 0.000000 0.000000 0.000000 0.000000 0.000000 0.000000 0.000000 0.000000 0.000000 0.000000 0.000000 0.000000 0.000000 0.000000 0.000000 0.000000 0.000000 0.000000 0.000000 0.000000 0.000000 0.000000 0.000000 0.000000 0.000000 0.000000 0.000000 0.000000 0.000000 0.000000 0.000000 0.000000 0.000000 0.000000 0.000000 0.000000 0.000000 0.000000 0.000000 0.000000 0.000000 0.000000 0.000000 0.000000 0.000000 0.000000 0.000000 0.000000 0.000000 0.000000 0.000000 0.000000 0.000000 0.000000 0.000000 0.000000 0.000000 0.000000 0.000000 0.000000 0.000000 0.000000 0.000000 0.000000 0.000000 0.000000 0.000000 0.000000 0.000000 0.000000 0.000000 0.000000 0.000000 0.000000 0.000000 0.000000 0.000000 0.000000 0.000000 0.000000 0.000000 0.000000 0.000000 0.000000 0.000000 0.000000 0.000000 0.000001 0.000004 0.000012 0.000035 0.000090 0.000216 0.000482 0.001006 0.001962 0.003580 0.006124 0.009835 0.014856 0.021149 0.028452 0.036314
0.031523 0.026213 0.020523 0.015064 0.010315 0.006563 0.003873 0.002121 0.001080 0.000513 0.000227 0.000094 0.000036 0.000013 0.000004 0.000001 0.000000 0.000000 0.000000 0.000000 0.000000 0.000000 0.000000 0.000000 0.000000 0.000000 0.000000 0.000000 0.000000 0.000000 0.000000 0.000000 0.000000 0.000000 0.000000 0.000000 0.000000 0.000000 0.000000 0.000000 0.000000 0.000000 0.000000 0.000000 0.000000 0.000000 0.000000 0.000000 0.000000 0.000000 0.000000 0.000000 0.000000 0.000000 0.000000 0.000000 0.000000 0.000000 0.000000 0.000000 0.000000 0.000000 0.000000 0.000000 0.000000 0.000000 0.000000 0.000000 0.000000 0.000000 0.000000 0.000000 0.000000 0.000000 0.000000 0.000000 0.000000 0.000000 0.000000 0.000000 0.000000 0.000000 0.000000 0.000000 0.000000 0.000000 0.000000 0.000000 0.000000 0.000000 0.000000 0.000000 0.000000 0.000000 0.000000 0.000000 0.000000 0.000000 0.000000 0.000000 0.000000 0.000000 0.000000 0.000000 0.000000 0.000000 0.000000 0.000000 0.000000 0.000000 0.000000 0.000000 0.000001 0.000004 0.000013 0.000037 0.000096 0.000231 0.000517 0.001078 0.002102 0.003837 0.006566 0.010552 0.015951 0.022728 0.030601 0.039076
0.033678 0.028000 0.021910 0.016073 0.011002 0.007001 0.004133 0.002265 0.001154 0.000548 0.000243 0.000101 0.000039 0.000014 0.000005 0.000001 0.000000 0.000000 0.000000 0.000000 0.000000 0.000000 0.000000 0.000000 0.000000 0.000000 0.000000 0.000000 0.000000 0.000000 0.000000 0.000000 0.000000 0.000000 0.000000 0.000000 0.000000 0.000000 0.000000 0.000000 0.000000 0.000000 0.000000 0.000000 0.000000 0.000000 0.000000 0.000000 0.000000 0.000000 0.000000 0.000000 0.000000 0.000000 0.000000 0.000000 0.000000 0.000000 0.000000 0.000000 0.000000 0.000000 0.000000 0.000000 0.000000 0.000000 0.000000 0.000000 0.000000 0.000000 0.000000 0.000000 0.000000 0.000000 0.000000 0.000000 0.000000 0.000000 0.000000 0.000000 0.000000 0.000000 0.000000 0.000000 0.000000 0.000000 0.000000 0.000000 0.000000 0.000000 0.000000 0.000000 0.000000 0.000000 0.000000 0.000000 0.000000 0.000000 0.000000 0.000000 0.000000 0.000000 0.000000 0.000000 0.000000 0.000000 0.000000 0.000000 0.000000 0.000000 0.000000 0.000000 0.000001 0.000005 0.000014 0.000040 0.000103 0.000247 0.000552 0.001152 0.002247 0.004103 0.007024 0.011294 0.017083 0.024358 0.032818 0.041937
0.035880 0.029839 0.023342 0.017116 0.011713 0.007454 0.004402 0.002414 0.001231 0.000585 0.000259 0.000107 0.000041 0.000015 0.000005 0.000002 0.000000 0.000000 0.000000 0.000000 0.000000 0.000000 0.000000 0.000000 0.000000 0.000000 0.000000 0.000000 0.000000 0.000000 0.000000 0.000000 0.000000 0.000000 0.000000 0.000000 0.000000 0.000000 0.000000 0.000000 0.000000 0.000000 0.000000 0.000000 0.000000 0.000000 0.000000 0.000000 0.000000 0.000000 0.000000 0.000000 0.000000 0.000000 0.000000 0.000000 0.000000 0.000000 0.000000 0.000000 0.000000 0.000000 0.000000 0.000000 0.000000 0.000000 0.000000 0.000000 0.000000 0.000000 0.000000 0.000000 0.000000 0.000000 0.000000 0.000000 0.000000 0.000000 0.000000 0.000000 0.000000 0.000000 0.000000 0.000000 0.000000 0.000000 0.000000 0.000000 0.000000 0.000000 0.000000 0.000000 0.000000 0.000000 0.000000 0.000000 0.000000 0.000000 0.000000 0.000000 0.000000 0.000000 0.000000 0.000000 0.000000 0.000000 0.000000 0.000000 0.000000 0.000000 0.000000 0.000000 0.000002 0.000005 0.000015 0.000042 0.000110 0.000263 0.000589 0.001230 0.002399 0.004381 0.007502 0.012066 0.018260 0.026050 0.035118 0.044903
0.038226 0.031778 0.024843 0.018205 0.012454 0.007925 0.004682 0.002568 0.001310 0.000623 0.000276 0.000114 0.000044 0.000016 0.000005 0.000002 0.000000 0.000000 0.000000 0.000000 0.000000 0.000000 0.000000 0.000000 0.000000 0.000000 0.000000 0.000000 0.000000 0.000000 0.000000 0.000000 0.000000 0.000000 0.000000 0.000000 0.000000 0.000000 0.000000 0.000000 0.000000 0.000000 0.000000 0.000000 0.000000 0.000000 0.000000 0.000000 0.000000 0.000000 0.000000 0.000000 0.000000 0.000000 0.000000 0.000000 0.000000 0.000000 0.000000 0.000000 0.000000 0.000000 0.000000 0.000000 0.000000 0.000000 0.000000 0.000000 0.000000 0.000000 0.000000 0.000000 0.000000 0.000000 0.000000 0.000000 0.000000 0.000000 0.000000 0.000000 0.000000 0.000000 0.000000 0.000000 0.000000 0.000000 0.000000 0.000000 0.000000 0.000000 0.000000 0.000000 0.000000 0.000000 0.000000 0.000000 0.000000 0.000000 0.000000 0.000000 0.000000 0.000000 0.000000 0.000000 0.000000 0.000000 0.000000 0.000000 0.000000 0.000000 0.000000 0.000000 0.000002 0.000005 0.000016 0.000045 0.000117 0.000280 0.000628 0.001310 0.002557 0.004670 0.008000 0.012872 0.019488 0.027816 0.037521 0.048005
0.040785 0.033846 0.026427 0.019349 0.013230 0.008417 0.004974 0.002730 0.001393 0.000663 0.000294 0.000122 0.000047 0.000017 0.000006 0.000002 0.000000 0.000000 0.000000 0.000000 0.000000 0.000000 0.000000 0.000000 0.000000 0.000000 0.000000 0.000000 0.000000 0.000000 0.000000 0.000000 0.000000 0.000000 0.000000 0.000000 0.000000 0.000000 0.000000 0.000000 0.000000 0.000000 0.000000 0.000000 0.000000 0.000000 0.000000 0.000000 0.000000 0.000000 0.000000 0.000000 0.000000 0.000000 0.000000 0.000000 0.000000 0.000000 0.000000 0.000000 0.000000 0.000000 0.000000 0.000000 0.000000 0.000000 0.000000 0.000000 0.000000 0.000000 0.000000 0.000000 0.000000 0.000000 0.000000 0.000000 0.000000 0.000000 0.000000 0.000000 0.000000 0.000000 0.000000 0.000000 0.000000 0.000000 0.000000 0.000000 0.000000 0.000000 0.000000 0.000000 0.000000 0.000000 0.000000 0.000000 0.000000 0.000000 0.000000 0.000000 0.000000 0.000000 0.000000 0.000000 0.000000 0.000000 0.000000 0.000000 0.000000 0.000000 0.000000 0.000000 0.000002 0.000006 0.000017 0.000048 0.000124 0.000299 0.000668 0.001395 0.002722 0.004973 0.008521 0.013715 0.020772 0.029664 0.040039 0.051267