# vtk DataFile Version 2.0
test
ASCII
DATASET STRUCTURED_POINTS
DIMENSIONS 128 128 1
ORIGIN 0 0 0
SPACING 1 1 1
POINT_DATA 16384
SCALARS values float
LOOKUP_TABLE default
0.000264 0.000469 -0.000220 0.000299 0.000673 0.002088 0.002846 0.004298 0.004753 0.005877 0.007070 0.008563 0.009899 0.011090 0.012851 0.014076 0.015334 0.016905 0.017996 0.019278 0.020422 0.021395 0.022650 0.023474 0.024362 0.025388 0.026088 0.026921 0.027812 0.028473 0.029190 0.030006 0.030591 0.031304 0.032024 0.032602 0.033174 0.033772 0.034150 0.034467 0.034764 0.034955 0.035009 0.035035 0.034980 0.034728 0.034270 0.033705 0.033108 0.032311 0.031327 0.030788 0.031627 0.033259 0.033152 0.031351 0.031485 0.032590 0.031960 0.032285 0.032620 0.032443 0.033222 0.033136 0.033710 0.034030 0.034545 0.034990 0.035464 0.035912 0.036515 0.037000 0.037624 0.038147 0.038797 0.039277 0.039824 0.040266 0.040775 0.041231 0.041583 0.041970 0.042306 0.042692 0.042980 0.043224 0.043502 0.043681 0.043851 0.043884 0.043834 0.043782 0.043538 0.043249 0.042830 0.042291 0.041760 0.041039 0.040274 0.039498 0.038566 0.037662 0.036667 0.035541 0.034468 0.033310 0.032095 0.030848 0.029429 0.027980 0.026538 0.024978 0.023346 0.021664 0.019861 0.018028 0.016169 0.014201 0.012168 0.010057 0.007834 0.005685 0.003799 0.002226 0.001016 0.000265 -0.000023 0.000058
-0.001560 -0.000076 0.000452 0.001023 0.001616 0.002510 0.003327 0.004296 0.005066 0.006017 0.007060 0.008221 0.009375 0.010518 0.011789 0.012938 0.014073 0.015255 0.016306 0.017357 0.018344 0.019263 0.020205 0.021016 0.021803 0.022588 0.023273 0.023959 0.024631 0.025226 0.025808 0.026388 0.026898 0.027414 0.027912 0.028354 0.028766 0.029150 0.029446 0.029687 0.029883 0.030012 0.030064 0.030059 0.029978 0.029780 0.029461 0.029054 0.028590 0.028060 0.027546 0.027309 0.027585 0.028076 0.028031 0.027502 0.027446 0.027694 0.027597 0.027698 0.027829 0.027884 0.028163 0.028288 0.028572 0.028834 0.029156 0.029477 0.029816 0.030165 0.030561 0.030947 0.031371 0.031780 0.032213 0.032601 0.032990 0.033346 0.033704 0.034035 0.034325 0.034608 0.034869 0.035126 0.035344 0.035534 0.035709 0.035837 0.035928 0.035947 0.035906 0.035816 0.035632 0.035382 0.035049 0.034637 0.034174 0.033621 0.033011 0.032356 0.031629 0.030869 0.030052 0.029171 0.028273 0.027327 0.026335 0.025296 0.024179 0.023020 0.021829 0.020577 0.019270 0.017912 0.016490 0.015028 0.013528 0.011971 0.010369 0.008731 0.007076 0.005491 0.004069 0.002856 0.001877 0.001130 0.000536 -0.000084
-0.000482 0.000361 0.000990 0.001541 0.002097 0.002731 0.003411 0.004137 0.004874 0.005675 0.006546 0.007477 0.008433 0.009405 0.010396 0.011364 0.012312 0.013245 0.014134 0.014989 0.015803 0.016576 0.017316 0.018004 0.018653 0.019270 0.019843 0.020386 0.020900 0.021375 0.021823 0.022247 0.022638 0.023009 0.023356 0.023672 0.023960 0.024216 0.024429 0.024603 0.024738 0.024828 0.024871 0.024864 0.024798 0.024659 0.024446 0.024171 0.023853 0.023518 0.023231 0.023090 0.023139 0.023247 0.023216 0.023065 0.022995 0.023010 0.023006 0.023032 0.023083 0.023149 0.023259 0.023377 0.023531 0.023707 0.023908 0.024123 0.024353 0.024599 0.024864 0.025140 0.025429 0.025723 0.026019 0.026305 0.026581 0.026846 0.027100 0.027338 0.027557 0.027762 0.027952 0.028129 0.028285 0.028420 0.028533 0.028617 0.028666 0.028672 0.028632 0.028545 0.028401 0.028201 0.027943 0.027628 0.027259 0.026834 0.026359 0.025838 0.025270 0.024662 0.024013 0.023323 0.022602 0.021846 0.021054 0.020222 0.019346 0.018433 0.017486 0.016500 0.015474 0.014409 0.013306 0.012171 0.011008 0.009817 0.008606 0.007392 0.006200 0.005077 0.004068 0.003196 0.002455 0.001802 0.001130 0.000264
-0.000193 0.000842 0.001503 0.001972 0.002383 0.002815 0.003293 0.003823 0.004403 0.005037 0.005726 0.006459 0.007219 0.007994 0.008773 0.009542 0.010296 0.011028 0.011733 0.012407 0.013049 0.013659 0.014235 0.014776 0.015284 0.015759 0.016202 0.016616 0.017000 0.017356 0.017686 0.017991 0.018273 0.018533 0.018773 0.018991 0.019186 0.019359 0.019506 0.019628 0.019723 0.019790 0.019824 0.019825 0.019784 0.019698 0.019565 0.019391 0.019190 0.018986 0.018815 0.018714 0.018690 0.018692 0.018663 0.018601 0.018552 0.018528 0.018516 0.018516 0.018532 0.018564 0.018615 0.018682 0.018768 0.018872 0.018993 0.019127 0.019275 0.019435 0.019609 0.019794 0.019987 0.020187 0.020388 0.020586 0.020780 0.020967 0.021145 0.021313 0.021469 0.021614 0.021747 0.021869 0.021975 0.022066 0.022139 0.022191 0.022217 0.022213 0.022177 0.022105 0.021994 0.021842 0.021647 0.021410 0.021131 0.020811 0.020450 0.020053 0.019619 0.019151 0.018650 0.018119 0.017559 0.016972 0.016357 0.015712 0.015037 0.014335 0.013605 0.012847 0.012063 0.011252 0.010418 0.009564 0.008697 0.007824 0.006955 0.006108 0.005305 0.004574 0.003936 0.003392 0.002918 0.002449 0.001877 0.001055
0.000650 0.001562 0.002102 0.002417 0.002635 0.002850 0.003109 0.003431 0.003817 0.004266 0.004769 0.005315 0.005889 0.006477 0.007070 0.007656 0.008231 0.008788 0.009323 0.009835 0.010322 0.010782 0.011216 0.011623 0.012003 0.012357 0.012684 0.012987 0.013267 0.013523 0.013758 0.013972 0.014168 0.014347 0.014509 0.014656 0.014787 0.014903 0.015003 0.015086 0.015153 0.015203 0.015232 0.015238 0.015219 0.015170 0.015093 0.014990 0.014870 0.014749 0.014644 0.014572 0.014532 0.014509 0.014481 0.014446 0.014412 0.014385 0.014367 0.014356 0.014354 0.014363 0.014382 0.014414 0.014458 0.014514 0.014581 0.014660 0.014750 0.014849 0.014959 0.015077 0.015203 0.015333 0.015466 0.015599 0.015731 0.015858 0.015980 0.016096 0.016203 0.016303 0.016393 0.016475 0.016546 0.016605 0.016650 0.016681 0.016693 0.016685 0.016655 0.016599 0.016516 0.016404 0.016261 0.016088 0.015884 0.015649 0.015384 0.015090 0.014768 0.014419 0.014046 0.013648 0.013228 0.012787 0.012324 0.011839 0.011333 0.010807 0.010261 0.009696 0.009114 0.008515 0.007905 0.007287 0.006671 0.006065 0.005485 0.004949 0.004476 0.004085 0.003784 0.003563 0.003384 0.003173 0.002820 0.002178
0.001481 0.002428 0.002828 0.002937 0.002930 0.002913 0.002942 0.003046 0.003230 0.003489 0.003812 0.004183 0.004587 0.005009 0.005439 0.005868 0.006288 0.006696 0.007088 0.007462 0.007817 0.008153 0.008468 0.008763 0.009037 0.009292 0.009526 0.009742 0.009939 0.010119 0.010283 0.010430 0.010564 0.010685 0.010794 0.010891 0.010978 0.011054 0.011121 0.011178 0.011224 0.011259 0.011282 0.011291 0.011284 0.011259 0.011217 0.011158 0.011089 0.011018 0.010953 0.010903 0.010867 0.010841 0.010818 0.010793 0.010768 0.010746 0.010727 0.010713 0.010704 0.010701 0.010705 0.010716 0.010735 0.010763 0.010799 0.010842 0.010894 0.010953 0.011020 0.011093 0.011172 0.011255 0.011341 0.011428 0.011514 0.011599 0.011680 0.011757 0.011829 0.011896 0.011956 0.012009 0.012055 0.012092 0.012120 0.012137 0.012142 0.012133 0.012109 0.012067 0.012007 0.011926 0.011825 0.011702 0.011557 0.011389 0.011200 0.010990 0.010759 0.010508 0.010238 0.009951 0.009646 0.009325 0.008988 0.008636 0.008269 0.007887 0.007492 0.007084 0.006666 0.006240 0.005810 0.005384 0.004972 0.004586 0.004245 0.003968 0.003776 0.003682 0.003692 0.003787 0.003925 0.004029 0.003992 0.003672
0.003224 0.003616 0.003696 0.003552 0.003301 0.003042 0.002841 0.002730 0.002716 0.002795 0.002951 0.003167 0.003423 0.003706 0.004000 0.004298 0.004593 0.004880 0.005156 0.005419 0.005669 0.005905 0.006127 0.006334 0.006526 0.006703 0.006867 0.007016 0.007153 0.007276 0.007388 0.007488 0.007578 0.007659 0.007731 0.007795 0.007852 0.007902 0.007946 0.007983 0.008014 0.008038 0.008055 0.008063 0.008061 0.008049 0.008026 0.007993 0.007954 0.007912 0.007872 0.007838 0.007810 0.007788 0.007769 0.007750 0.007732 0.007715 0.007699 0.007686 0.007675 0.007669 0.007666 0.007667 0.007674 0.007686 0.007704 0.007727 0.007756 0.007790 0.007830 0.007874 0.007923 0.007975 0.008029 0.008084 0.008139 0.008194 0.008247 0.008297 0.008344 0.008387 0.008426 0.008460 0.008489 0.008512 0.008528 0.008538 0.008539 0.008530 0.008512 0.008481 0.008439 0.008383 0.008312 0.008227 0.008127 0.008012 0.007881 0.007735 0.007575 0.007400 0.007212 0.007011 0.006798 0.006573 0.006337 0.006090 0.005832 0.005565 0.005289 0.005005 0.004715 0.004424 0.004137 0.003862 0.003611 0.003403 0.003256 0.003194 0.003240 0.003409 0.003703 0.004106 0.004573 0.005033 0.005387 0.005523
0.004509 0.004797 0.004650 0.004251 0.003749 0.003252 0.002828 0.002513 0.002318 0.002234 0.002244 0.002327 0.002462 0.002631 0.002818 0.003014 0.003210 0.003404 0.003591 0.003770 0.003940 0.004100 0.004250 0.004391 0.004521 0.004641 0.004752 0.004853 0.004945 0.005028 0.005103 0.005170 0.005230 0.005283 0.005330 0.005372 0.005409 0.005441 0.005469 0.005493 0.005513 0.005529 0.005540 0.005545 0.005545 0.005539 0.005526 0.005508 0.005485 0.005461 0.005436 0.005413 0.005393 0.005376 0.005361 0.005347 0.005334 0.005321 0.005309 0.005299 0.005290 0.005283 0.005278 0.005276 0.005277 0.005282 0.005290 0.005302 0.005318 0.005338 0.005361 0.005387 0.005417 0.005448 0.005482 0.005516 0.005551 0.005585 0.005618 0.005650 0.005680 0.005707 0.005732 0.005753 0.005771 0.005785 0.005794 0.005799 0.005798 0.005791 0.005778 0.005756 0.005727 0.005689 0.005642 0.005585 0.005518 0.005440 0.005353 0.005255 0.005148 0.005030 0.004904 0.004769 0.004625 0.004473 0.004313 0.004146 0.003972 0.003791 0.003605 0.003415 0.003224 0.003035 0.002856 0.002697 0.002573 0.002503 0.002513 0.002629 0.002878 0.003279 0.003837 0.004536 0.005335 0.006166 0.006944 0.007574
0.006127 0.006094 0.005670 0.005015 0.004269 0.003542 0.002908 0.002406 0.002046 0.001821 0.001708 0.001684 0.001722 0.001802 0.001908 0.002027 0.002151 0.002275 0.002397 0.002514 0.002625 0.002730 0.002829 0.002921 0.003006 0.003085 0.003158 0.003224 0.003285 0.003339 0.003388 0.003432 0.003471 0.003506 0.003536 0.003563 0.003586 0.003607 0.003624 0.003639 0.003651 0.003660 0.003667 0.003670 0.003670 0.003667 0.003660 0.003649 0.003636 0.003621 0.003606 0.003591 0.003577 0.003565 0.003554 0.003544 0.003535 0.003526 0.003518 0.003510 0.003503 0.003498 0.003493 0.003491 0.003490 0.003491 0.003495 0.003501 0.003509 0.003521 0.003534 0.003550 0.003567 0.003586 0.003606 0.003627 0.003648 0.003669 0.003690 0.003710 0.003728 0.003745 0.003760 0.003773 0.003784 0.003792 0.003797 0.003799 0.003798 0.003793 0.003783 0.003769 0.003749 0.003724 0.003693 0.003656 0.003612 0.003562 0.003506 0.003443 0.003373 0.003297 0.003215 0.003127 0.003034 0.002935 0.002831 0.002722 0.002609 0.002491 0.002371 0.002250 0.002130 0.002016 0.001917 0.001845 0.001817 0.001857 0.001993 0.002257 0.002681 0.003290 0.004091 0.005073 0.006196 0.007399 0.008607 0.009748
0.007747 0.007407 0.006721 0.005822 0.004844 0.003902 0.003073 0.002400 0.001896 0.001548 0.001334 0.001223 0.001187 0.001202 0.001248 0.001312 0.001384 0.001460 0.001535 0.001608 0.001678 0.001744 0.001807 0.001865 0.001919 0.001969 0.002015 0.002058 0.002096 0.002131 0.002162 0.002190 0.002214 0.002236 0.002256 0.002272 0.002287 0.002299 0.002310 0.002318 0.002325 0.002331 0.002334 0.002336 0.002336 0.002334 0.002330 0.002324 0.002316 0.002307 0.002298 0.002289 0.002280 0.002271 0.002264 0.002257 0.002251 0.002245 0.002239 0.002234 0.002229 0.002225 0.002222 0.002220 0.002219 0.002219 0.002220 0.002223 0.002228 0.002234 0.002242 0.002251 0.002261 0.002272 0.002284 0.002297 0.002309 0.002322 0.002334 0.002346 0.002357 0.002367 0.002376 0.002384 0.002390 0.002395 0.002398 0.002398 0.002397 0.002393 0.002387 0.002377 0.002365 0.002349 0.002329 0.002306 0.002279 0.002247 0.002212 0.002173 0.002129 0.002082 0.002031 0.001976 0.001917 0.001855 0.001790 0.001722 0.001651 0.001578 0.001503 0.001430 0.001360 0.001301 0.001260 0.001252 0.001296 0.001421 0.001659 0.002049 0.002626 0.003422 0.004450 0.005701 0.007138 0.008698 0.010309 0.011903
0.009213 0.008667 0.007768 0.006652 0.005461 0.004318 0.003309 0.002481 0.001847 0.001395 0.001096 0.000917 0.000825 0.000791 0.000795 0.000820 0.000857 0.000900 0.000944 0.000987 0.001030 0.001070 0.001108 0.001144 0.001177 0.001207 0.001235 0.001261 0.001285 0.001306 0.001325 0.001342 0.001357 0.001371 0.001382 0.001393 0.001401 0.001408 0.001415 0.001420 0.001423 0.001426 0.001428 0.001429 0.001429 0.001427 0.001425 0.001422 0.001417 0.001412 0.001407 0.001401 0.001395 0.001390 0.001385 0.001381 0.001377 0.001373 0.001369 0.001366 0.001363 0.001361 0.001358 0.001357 0.001356 0.001355 0.001356 0.001357 0.001360 0.001363 0.001368 0.001373 0.001379 0.001385 0.001392 0.001399 0.001407 0.001414 0.001421 0.001428 0.001435 0.001440 0.001446 0.001450 0.001454 0.001456 0.001458 0.001458 0.001457 0.001454 0.001450 0.001444 0.001436 0.001426 0.001414 0.001400 0.001384 0.001365 0.001343 0.001320 0.001294 0.001265 0.001234 0.001201 0.001166 0.001129 0.001089 0.001048 0.001006 0.000962 0.000919 0.000878 0.000843 0.000820 0.000820 0.000859 0.000959 0.001151 0.001474 0.001971 0.002686 0.003655 0.004897 0.006405 0.008143 0.010044 0.012021 0.013974
0.010468 0.009850 0.008799 0.007496 0.006110 0.004778 0.003600 0.002629 0.001879 0.001335 0.000965 0.000730 0.000595 0.000526 0.000500 0.000499 0.000513 0.000534 0.000558 0.000583 0.000607 0.000630 0.000652 0.000673 0.000693 0.000711 0.000727 0.000742 0.000756 0.000769 0.000780 0.000790 0.000799 0.000807 0.000814 0.000820 0.000825 0.000829 0.000832 0.000835 0.000837 0.000838 0.000839 0.000840 0.000839 0.000839 0.000837 0.000835 0.000833 0.000830 0.000827 0.000823 0.000820 0.000817 0.000814 0.000811 0.000809 0.000807 0.000804 0.000803 0.000801 0.000799 0.000798 0.000797 0.000796 0.000796 0.000796 0.000797 0.000798 0.000800 0.000802 0.000805 0.000808 0.000812 0.000816 0.000820 0.000824 0.000828 0.000832 0.000836 0.000840 0.000843 0.000846 0.000848 0.000850 0.000852 0.000852 0.000852 0.000852 0.000850 0.000847 0.000844 0.000839 0.000833 0.000826 0.000818 0.000808 0.000797 0.000785 0.000771 0.000756 0.000739 0.000722 0.000702 0.000682 0.000660 0.000638 0.000614 0.000589 0.000565 0.000542 0.000522 0.000510 0.000512 0.000541 0.000613 0.000756 0.001003 0.001399 0.001992 0.002833 0.003965 0.005412 0.007171 0.009203 0.011439 0.013778 0.016109
0.011693 0.011013 0.009830 0.008356 0.006784 0.005273 0.003935 0.002829 0.001970 0.001343 0.000910 0.000630 0.000460 0.000365 0.000318 0.000300 0.000299 0.000306 0.000317 0.000330 0.000343 0.000356 0.000369 0.000381 0.000392 0.000402 0.000411 0.000420 0.000427 0.000435 0.000441 0.000447 0.000452 0.000456 0.000460 0.000463 0.000466 0.000468 0.000470 0.000471 0.000472 0.000473 0.000474 0.000474 0.000473 0.000473 0.000472 0.000471 0.000470 0.000468 0.000466 0.000464 0.000463 0.000461 0.000459 0.000458 0.000456 0.000455 0.000454 0.000453 0.000452 0.000451 0.000450 0.000449 0.000449 0.000448 0.000449 0.000449 0.000450 0.000451 0.000452 0.000453 0.000455 0.000457 0.000459 0.000462 0.000464 0.000466 0.000468 0.000471 0.000473 0.000474 0.000476 0.000477 0.000478 0.000479 0.000479 0.000479 0.000479 0.000477 0.000476 0.000474 0.000471 0.000468 0.000464 0.000459 0.000454 0.000448 0.000441 0.000433 0.000425 0.000415 0.000405 0.000395 0.000383 0.000371 0.000359 0.000346 0.000332 0.000320 0.000309 0.000302 0.000305 0.000324 0.000373 0.000472 0.000649 0.000943 0.001402 0.002084 0.003045 0.004334 0.005982 0.007989 0.010316 0.012889 0.015598 0.018318
0.012950 0.012201 0.010887 0.009241 0.007485 0.005798 0.004302 0.003065 0.002103 0.001398 0.000909 0.000588 0.000390 0.000274 0.000213 0.000183 0.000172 0.000171 0.000174 0.000180 0.000187 0.000194 0.000200 0.000207 0.000212 0.000218 0.000223 0.000228 0.000232 0.000236 0.000239 0.000242 0.000245 0.000247 0.000249 0.000251 0.000253 0.000254 0.000255 0.000255 0.000256 0.000256 0.000256 0.000256 0.000256 0.000256 0.000255 0.000255 0.000254 0.000253 0.000252 0.000251 0.000250 0.000249 0.000249 0.000248 0.000247 0.000246 0.000246 0.000245 0.000245 0.000244 0.000244 0.000243 0.000243 0.000243 0.000243 0.000243 0.000243 0.000244 0.000244 0.000245 0.000246 0.000247 0.000248 0.000250 0.000251 0.000252 0.000253 0.000254 0.000255 0.000256 0.000257 0.000258 0.000258 0.000259 0.000259 0.000259 0.000258 0.000258 0.000257 0.000256 0.000254 0.000252 0.000250 0.000248 0.000245 0.000241 0.000238 0.000234 0.000229 0.000224 0.000219 0.000213 0.000207 0.000200 0.000194 0.000187 0.000180 0.000175 0.000171 0.000173 0.000185 0.000216 0.000280 0.000399 0.000605 0.000940 0.001460 0.002226 0.003303 0.004748 0.006597 0.008854 0.011483 0.014403 0.017502 0.020644
0.014210 0.013448 0.011997 0.010167 0.008218 0.006349 0.004695 0.003328 0.002265 0.001485 0.000942 0.000584 0.000361 0.000229 0.000156 0.000118 0.000100 0.000094 0.000093 0.000095 0.000098 0.000101 0.000104 0.000108 0.000111 0.000113 0.000116 0.000118 0.000121 0.000123 0.000124 0.000126 0.000127 0.000129 0.000130 0.000131 0.000131 0.000132 0.000132 0.000133 0.000133 0.000133 0.000133 0.000133 0.000133 0.000133 0.000133 0.000132 0.000132 0.000131 0.000131 0.000130 0.000130 0.000129 0.000129 0.000129 0.000128 0.000128 0.000128 0.000127 0.000127 0.000127 0.000126 0.000126 0.000126 0.000126 0.000126 0.000126 0.000126 0.000126 0.000127 0.000127 0.000128 0.000128 0.000129 0.000130 0.000130 0.000131 0.000131 0.000132 0.000133 0.000133 0.000133 0.000134 0.000134 0.000134 0.000134 0.000134 0.000134 0.000134 0.000133 0.000132 0.000132 0.000131 0.000129 0.000128 0.000127 0.000125 0.000123 0.000121 0.000119 0.000116 0.000113 0.000110 0.000107 0.000104 0.000101 0.000097 0.000094 0.000093 0.000094 0.000101 0.000119 0.000158 0.000234 0.000370 0.000601 0.000975 0.001552 0.002401 0.003594 0.005196 0.007249 0.009764 0.012704 0.015990 0.019502 0.023092
0.015827 0.014858 0.013192 0.011144 0.008985 0.006926 0.005110 0.003611 0.002447 0.001592 0.000997 0.000604 0.000358 0.000211 0.000128 0.000084 0.000062 0.000052 0.000049 0.000048 0.000049 0.000051 0.000052 0.000054 0.000055 0.000057 0.000058 0.000059 0.000060 0.000061 0.000062 0.000063 0.000064 0.000064 0.000065 0.000065 0.000065 0.000066 0.000066 0.000066 0.000066 0.000066 0.000066 0.000066 0.000066 0.000066 0.000066 0.000066 0.000066 0.000065 0.000065 0.000065 0.000065 0.000064 0.000064 0.000064 0.000064 0.000064 0.000063 0.000063 0.000063 0.000063 0.000063 0.000063 0.000063 0.000063 0.000063 0.000063 0.000063 0.000063 0.000063 0.000063 0.000064 0.000064 0.000064 0.000064 0.000065 0.000065 0.000065 0.000066 0.000066 0.000066 0.000066 0.000067 0.000067 0.000067 0.000067 0.000067 0.000067 0.000066 0.000066 0.000066 0.000065 0.000065 0.000064 0.000064 0.000063 0.000062 0.000061 0.000060 0.000059 0.000058 0.000056 0.000055 0.000053 0.000052 0.000050 0.000049 0.000048 0.000049 0.000052 0.000063 0.000085 0.000131 0.000216 0.000367 0.000623 0.001034 0.001668 0.002600 0.003911 0.005673 0.007936 0.010715 0.013981 0.017653 0.021609 0.025698
0.017691 0.016406 0.014471 0.012176 0.009789 0.007529 0.005544 0.003910 0.002643 0.001713 0.001066 0.000638 0.000369 0.000208 0.000117 0.000068 0.000043 0.000031 0.000026 0.000024 0.000024 0.000024 0.000025 0.000026 0.000026 0.000027 0.000028 0.000028 0.000029 0.000029 0.000030 0.000030 0.000030 0.000031 0.000031 0.000031 0.000031 0.000031 0.000031 0.000032 0.000032 0.000032 0.000032 0.000032 0.000032 0.000032 0.000031 0.000031 0.000031 0.000031 0.000031 0.000031 0.000031 0.000031 0.000031 0.000030 0.000030 0.000030 0.000030 0.000030 0.000030 0.000030 0.000030 0.000030 0.000030 0.000030 0.000030 0.000030 0.000030 0.000030 0.000030 0.000030 0.000030 0.000030 0.000031 0.000031 0.000031 0.000031 0.000031 0.000031 0.000031 0.000032 0.000032 0.000032 0.000032 0.000032 0.000032 0.000032 0.000032 0.000032 0.000031 0.000031 0.000031 0.000031 0.000031 0.000030 0.000030 0.000030 0.000029 0.000029 0.000028 0.000027 0.000027 0.000026 0.000025 0.000025 0.000024 0.000024 0.000024 0.000026 0.000031 0.000044 0.000070 0.000120 0.000214 0.000380 0.000659 0.001109 0.001800 0.002817 0.004247 0.006173 0.008652 0.011706 0.015308 0.019383 0.023818 0.028489
0.019544 0.018015 0.015813 0.013255 0.010627 0.008157 0.005996 0.004223 0.002851 0.001844 0.001144 0.000681 0.000390 0.000215 0.000116 0.000062 0.000034 0.000021 0.000015 0.000012 0.000011 0.000011 0.000012 0.000012 0.000012 0.000012 0.000013 0.000013 0.000013 0.000013 0.000014 0.000014 0.000014 0.000014 0.000014 0.000014 0.000014 0.000014 0.000014 0.000014 0.000014 0.000014 0.000014 0.000014 0.000014 0.000014 0.000014 0.000014 0.000014 0.000014 0.000014 0.000014 0.000014 0.000014 0.000014 0.000014 0.000014 0.000014 0.000014 0.000014 0.000014 0.000014 0.000014 0.000014 0.000014 0.000014 0.000014 0.000014 0.000014 0.000014 0.000014 0.000014 0.000014 0.000014 0.000014 0.000014 0.000014 0.000014 0.000014 0.000014 0.000014 0.000014 0.000014 0.000015 0.000015 0.000015 0.000015 0.000015 0.000014 0.000014 0.000014 0.000014 0.000014 0.000014 0.000014 0.000014 0.000014 0.000013 0.000013 0.000013 0.000013 0.000012 0.000012 0.000012 0.000012 0.000011 0.000011 0.000011 0.000012 0.000015 0.000021 0.000035 0.000064 0.000120 0.000222 0.000402 0.000705 0.001192 0.001942 0.003046 0.004601 0.006696 0.009397 0.012734 0.016680 0.021163 0.026065 0.031257
0.021477 0.019678 0.017202 0.014375 0.011497 0.008807 0.006465 0.004548 0.003067 0.001982 0.001227 0.000729 0.000415 0.000227 0.000120 0.000062 0.000031 0.000017 0.000010 0.000007 0.000006 0.000005 0.000005 0.000005 0.000005 0.000005 0.000006 0.000006 0.000006 0.000006 0.000006 0.000006 0.000006 0.000006 0.000006 0.000006 0.000006 0.000006 0.000006 0.000006 0.000006 0.000006 0.000006 0.000006 0.000006 0.000006 0.000006 0.000006 0.000006 0.000006 0.000006 0.000006 0.000006 0.000006 0.000006 0.000006 0.000006 0.000006 0.000006 0.000006 0.000006 0.000006 0.000006 0.000006 0.000006 0.000006 0.000006 0.000006 0.000006 0.000006 0.000006 0.000006 0.000006 0.000006 0.000006 0.000006 0.000006 0.000006 0.000006 0.000006 0.000006 0.000006 0.000006 0.000006 0.000006 0.000006 0.000006 0.000006 0.000006 0.000006 0.000006 0.000006 0.000006 0.000006 0.000006 0.000006 0.000006 0.000006 0.000006 0.000006 0.000006 0.000005 0.000005 0.000005 0.000005 0.000005 0.000005 0.000006 0.000007 0.000010 0.000017 0.000033 0.000064 0.000124 0.000235 0.000429 0.000757 0.001283 0.002093 0.003287 0.004969 0.007239 0.010170 0.013796 0.018094 0.022985 0.028343 0.034021
0.023354 0.021360 0.018629 0.015531 0.012396 0.009481 0.006950 0.004885 0.003291 0.002126 0.001315 0.000780 0.000443 0.000241 0.000126 0.000064 0.000031 0.000015 0.000008 0.000004 0.000003 0.000002 0.000002 0.000002 0.000002 0.000002 0.000002 0.000002 0.000002 0.000002 0.000002 0.000003 0.000003 0.000003 0.000003 0.000003 0.000003 0.000003 0.000003 0.000003 0.000003 0.000003 0.000003 0.000003 0.000003 0.000003 0.000003 0.000003 0.000003 0.000003 0.000003 0.000003 0.000003 0.000003 0.000003 0.000003 0.000003 0.000003 0.000003 0.000003 0.000003 0.000003 0.000003 0.000002 0.000002 0.000002 0.000002 0.000002 0.000002 0.000002 0.000003 0.000003 0.000003 0.000003 0.000003 0.000003 0.000003 0.000003 0.000003 0.000003 0.000003 0.000003 0.000003 0.000003 0.000003 0.000003 0.000003 0.000003 0.000003 0.000003 0.000003 0.000003 0.000003 0.000003 0.000003 0.000003 0.000002 0.000002 0.000002 0.000002 0.000002 0.000002 0.000002 0.000002 0.000002 0.000002 0.000002 0.000003 0.000004 0.000008 0.000016 0.000033 0.000066 0.000131 0.000250 0.000460 0.000812 0.001379 0.002251 0.003538 0.005352 0.007802 0.010971 0.014894 0.019551 0.024856 0.030668 0.036811
0.025242 0.023083 0.020102 0.016728 0.013328 0.010177 0.007453 0.005234 0.003524 0.002275 0.001407 0.000834 0.000473 0.000257 0.000134 0.000067 0.000032 0.000015 0.000007 0.000003 0.000002 0.000001 0.000001 0.000001 0.000001 0.000001 0.000001 0.000001 0.000001 0.000001 0.000001 0.000001 0.000001 0.000001 0.000001 0.000001 0.000001 0.000001 0.000001 0.000001 0.000001 0.000001 0.000001 0.000001 0.000001 0.000001 0.000001 0.000001 0.000001 0.000001 0.000001 0.000001 0.000001 0.000001 0.000001 0.000001 0.000001 0.000001 0.000001 0.000001 0.000001 0.000001 0.000001 0.000001 0.000001 0.000001 0.000001 0.000001 0.000001 0.000001 0.000001 0.000001 0.000001 0.000001 0.000001 0.000001 0.000001 0.000001 0.000001 0.000001 0.000001 0.000001 0.000001 0.000001 0.000001 0.000001 0.000001 0.000001 0.000001 0.000001 0.000001 0.000001 0.000001 0.000001 0.000001 0.000001 0.000001 0.000001 0.000001 0.000001 0.000001 0.000001 0.000001 0.000001 0.000001 0.000001 0.000001 0.000002 0.000004 0.000007 0.000016 0.000034 0.000070 0.000140 0.000267 0.000492 0.000870 0.001479 0.002416 0.003799 0.005750 0.008388 0.011800 0.016031 0.021058 0.026791 0.033079 0.039738
0.027251 0.024889 0.021638 0.017972 0.014294 0.010900 0.007973 0.005594 0.003765 0.002429 0.001502 0.000890 0.000505 0.000274 0.000143 0.000071 0.000034 0.000016 0.000007 0.000003 0.000001 0.000001 0.000000 0.000000 0.000000 0.000000 0.000000 0.000000 0.000000 0.000000 0.000000 0.000000 0.000000 0.000000 0.000000 0.000000 0.000000 0.000000 0.000000 0.000000 0.000000 0.000000 0.000000 0.000000 0.000000 0.000000 0.000000 0.000000 0.000000 0.000000 0.000000 0.000000 0.000000 0.000000 0.000000 0.000000 0.000000 0.000000 0.000000 0.000000 0.000000 0.000000 0.000000 0.000000 0.000000 0.000000 0.000000 0.000000 0.000000 0.000000 0.000000 0.000000 0.000000 0.000000 0.000000 0.000000 0.000000 0.000000 0.000000 0.000000 0.000000 0.000000 0.000000 0.000000 0.000000 0.000000 0.000000 0.000000 0.000000 0.000000 0.000000 0.000000 0.000000 0.000000 0.000000 0.000000 0.000000 0.000000 0.000000 0.000000 0.000000 0.000000 0.000000 0.000000 0.000000 0.000000 0.000001 0.000001 0.000003 0.000007 0.000017 0.000036 0.000075 0.000149 0.000286 0.000527 0.000932 0.001584 0.002588 0.004071 0.006164 0.008996 0.012662 0.017211 0.022622 0.028800 0.035584 0.042781
0.029424 0.026805 0.023249 0.019270 0.015299 0.011650 0.008513 0.005969 0.004015 0.002590 0.001601 0.000948 0.000538 0.000292 0.000152 0.000076 0.000036 0.000016 0.000007 0.000003 0.000001 0.000001 0.000000 0.000000 0.000000 0.000000 0.000000 0.000000 0.000000 0.000000 0.000000 0.000000 0.000000 0.000000 0.000000 0.000000 0.000000 0.000000 0.000000 0.000000 0.000000 0.000000 0.000000 0.000000 0.000000 0.000000 0.000000 0.000000 0.000000 0.000000 0.000000 0.000000 0.000000 0.000000 0.000000 0.000000 0.000000 0.000000 0.000000 0.000000 0.000000 0.000000 0.000000 0.000000 0.000000 0.000000 0.000000 0.000000 0.000000 0.000000 0.000000 0.000000 0.000000 0.000000 0.000000 0.000000 0.000000 0.000000 0.000000 0.000000 0.000000 0.000000 0.000000 0.000000 0.000000 0.000000 0.000000 0.000000 0.000000 0.000000 0.000000 0.000000 0.000000 0.000000 0.000000 0.000000 0.000000 0.000000 0.000000 0.000000 0.000000 0.000000 0.000000 0.000000 0.000000 0.000000 0.000001 0.000001 0.000003 0.000008 0.000018 0.000038 0.000080 0.000159 0.000305 0.000563 0.000996 0.001693 0.002768 0.004354 0.006595 0.009628 0.013559 0.018440 0.024251 0.030893 0.038197 0.045953
0.031786 0.028832 0.024937 0.020625 0.016347 0.012431 0.009075 0.006358 0.004275 0.002756 0.001703 0.001009 0.000572 0.000311 0.000162 0.000080 0.000038 0.000017 0.000008 0.000003 0.000001 0.000001 0.000000 0.000000 0.000000 0.000000 0.000000 0.000000 0.000000 0.000000 0.000000 0.000000 0.000000 0.000000 0.000000 0.000000 0.000000 0.000000 0.000000 0.000000 0.000000 0.000000 0.000000 0.000000 0.000000 0.000000 0.000000 0.000000 0.000000 0.000000 0.000000 0.000000 0.000000 0.000000 0.000000 0.000000 0.000000 0.000000 0.000000 0.000000 0.000000 0.000000 0.000000 0.000000 0.000000 0.000000 0.000000 0.000000 0.000000 0.000000 0.000000 0.000000 0.000000 0.000000 0.000000 0.000000 0.000000 0.000000 0.000000 0.000000 0.000000 0.000000 0.000000 0.000000 0.000000 0.000000 0.000000 0.000000 0.000000 0.000000 0.000000 0.000000 0.000000 0.000000 0.000000 0.000000 0.000000 0.000000 0.000000 0.000000 0.000000 0.000000 0.000000 0.000000 0.000000 0.000000 0.000001 0.000001 0.000003 0.000008 0.000019 0.000041 0.000085 0.000170 0.000326 0.000600 0.001063 0.001807 0.002955 0.004649 0.007045 0.010288 0.014494 0.019720 0.025949 0.033078 0.040931 0.049290
0.034199 0.030929 0.026690 0.022036 0.017440 0.013246 0.009661 0.006765 0.004546 0.002930 0.001810 0.001072 0.000608 0.000330 0.000172 0.000085 0.000041 0.000019 0.000008 0.000003 0.000001 0.000001 0.000000 0.000000 0.000000 0.000000 0.000000 0.000000 0.000000 0.000000 0.000000 0.000000 0.000000 0.000000 0.000000 0.000000 0.000000 0.000000 0.000000 0.000000 0.000000 0.000000 0.000000 0.000000 0.000000 0.000000 0.000000 0.000000 0.000000 0.000000 0.000000 0.000000 0.000000 0.000000 0.000000 0.000000 0.000000 0.000000 0.000000 0.000000 0.000000 0.000000 0.000000 0.000000 0.000000 0.000000 0.000000 0.000000 0.000000 0.000000 0.000000 0.000000 0.000000 0.000000 0.000000 0.000000 0.000000 0.000000 0.000000 0.000000 0.000000 0.000000 0.000000 0.000000 0.000000 0.000000 0.000000 0.000000 0.000000 0.000000 0.000000 0.000000 0.000000 0.000000 0.000000 0.000000 0.000000 0.000000 0.000000 0.000000 0.000000 0.000000 0.000000 0.000000 0.000000 0.000000 0.000001 0.000001 0.000004 0.000009 0.000020 0.000043 0.000090 0.000181 0.000347 0.000640 0.001133 0.001926 0.003150 0.004958 0.007514 0.010976 0.015469 0.021057 0.027722 0.035361 0.043791 0.052787