# vtk DataFile Version 2.0
test
ASCII
DATASET STRUCTURED_POINTS
DIMENSIONS 128 128 1
ORIGIN 0 0 0
SPACING 1 1 1
POINT_DATA 16384
SCALARS values float
LOOKUP_TABLE default
-0.001663 -0.004524 -0.008667 -0.002298 0.007715 0.006861 0.008261 0.009843 0.011360 0.012695 0.015054 0.016298 0.018364 0.018944 0.020374 0.021491 0.022844 0.024120 0.024801 0.026477 0.027611 0.028518 0.029880 0.030568 0.031625 0.032720 0.033285 0.034278 0.034954 0.035448 0.036141 0.036671 0.037069 0.037469 0.037842 0.038077 0.038317 0.038567 0.038771 0.038787 0.039007 0.039188 0.039118 0.039224 0.039497 0.039373 0.039314 0.039612 0.039606 0.039419 0.039606 0.039647 0.039046 0.038414 0.037788 0.036615 0.035446 0.035818 0.037877 0.038753 0.036906 0.036169 0.037197 0.036365 0.036233 0.036647 0.036238 0.036741 0.036365 0.036832 0.036813 0.036981 0.037032 0.037252 0.037369 0.037589 0.037608 0.037951 0.038165 0.038497 0.038543 0.038826 0.039078 0.039329 0.039504 0.039606 0.039859 0.039967 0.040036 0.040017 0.039985 0.039950 0.039794 0.039555 0.039290 0.038911 0.038535 0.038057 0.037441 0.036857 0.036122 0.035368 0.034558 0.033548 0.032619 0.031605 0.030425 0.029287 0.027969 0.026646 0.025334 0.023907 0.022412 0.020894 0.019239 0.017591 0.015942 0.014164 0.012387 0.010637 0.008856 0.007110 0.005455 0.003870 0.002462 0.001329 0.000476 0.000141
-0.004745 -0.003984 -0.003705 -0.000800 0.003016 0.004129 0.005267 0.006360 0.007454 0.008550 0.009895 0.011002 0.012202 0.013015 0.013956 0.014829 0.015741 0.016605 0.017330 0.018258 0.019057 0.019775 0.020555 0.021169 0.021838 0.022491 0.023003 0.023573 0.024046 0.024449 0.024867 0.025226 0.025524 0.025793 0.026031 0.026213 0.026375 0.026524 0.026641 0.026704 0.026802 0.026877 0.026885 0.026928 0.026999 0.026972 0.026959 0.027025 0.027014 0.026957 0.026975 0.026926 0.026677 0.026356 0.025967 0.025419 0.024957 0.025048 0.025663 0.025942 0.025459 0.025164 0.025297 0.025069 0.024993 0.025064 0.024986 0.025103 0.025056 0.025194 0.025242 0.025329 0.025396 0.025504 0.025596 0.025707 0.025784 0.025941 0.026081 0.026239 0.026332 0.026475 0.026616 0.026750 0.026856 0.026939 0.027045 0.027106 0.027137 0.027128 0.027098 0.027046 0.026940 0.026788 0.026601 0.026363 0.026096 0.025774 0.025391 0.024982 0.024511 0.024004 0.023451 0.022824 0.022185 0.021498 0.020745 0.019967 0.019122 0.018250 0.017358 0.016415 0.015430 0.014413 0.013339 0.012245 0.011130 0.009968 0.008791 0.007612 0.006428 0.005268 0.004171 0.003163 0.002298 0.001601 0.000997 0.000321
-0.009001 -0.004194 -0.001809 -0.000008 0.001524 0.002445 0.003143 0.003799 0.004463 0.005169 0.005931 0.006676 0.007390 0.008020 0.008628 0.009221 0.009805 0.010364 0.010890 0.011422 0.011921 0.012386 0.012835 0.013245 0.013643 0.014019 0.014358 0.014681 0.014974 0.015237 0.015483 0.015703 0.015892 0.016057 0.016198 0.016313 0.016410 0.016493 0.016559 0.016607 0.016650 0.016678 0.016687 0.016694 0.016700 0.016690 0.016682 0.016684 0.016671 0.016645 0.016621 0.016572 0.016472 0.016333 0.016154 0.015935 0.015759 0.015748 0.015881 0.015951 0.015851 0.015741 0.015696 0.015629 0.015589 0.015584 0.015579 0.015601 0.015619 0.015663 0.015707 0.015757 0.015809 0.015869 0.015929 0.015992 0.016054 0.016131 0.016211 0.016289 0.016358 0.016431 0.016503 0.016569 0.016624 0.016669 0.016709 0.016734 0.016741 0.016730 0.016703 0.016658 0.016590 0.016497 0.016380 0.016238 0.016071 0.015875 0.015650 0.015399 0.015118 0.014811 0.014473 0.014105 0.013714 0.013296 0.012848 0.012374 0.011872 0.011346 0.010800 0.010230 0.009636 0.009018 0.008376 0.007715 0.007036 0.006339 0.005630 0.004915 0.004203 0.003516 0.002891 0.002372 0.002004 0.001794 0.001649 0.001336
-0.006792 -0.002594 -0.000583 0.000519 0.001176 0.001564 0.001864 0.002170 0.002506 0.002879 0.003282 0.003690 0.004087 0.004460 0.004816 0.005163 0.005504 0.005832 0.006144 0.006441 0.006720 0.006980 0.007226 0.007456 0.007674 0.007876 0.008062 0.008235 0.008394 0.008541 0.008676 0.008797 0.008901 0.008990 0.009065 0.009126 0.009176 0.009218 0.009252 0.009278 0.009296 0.009305 0.009304 0.009297 0.009287 0.009277 0.009268 0.009262 0.009250 0.009231 0.009205 0.009170 0.009125 0.009071 0.009007 0.008937 0.008879 0.008860 0.008877 0.008888 0.008862 0.008817 0.008778 0.008745 0.008723 0.008713 0.008712 0.008719 0.008733 0.008755 0.008782 0.008813 0.008846 0.008882 0.008918 0.008955 0.008993 0.009033 0.009075 0.009116 0.009155 0.009192 0.009227 0.009257 0.009282 0.009301 0.009314 0.009319 0.009316 0.009304 0.009283 0.009252 0.009211 0.009158 0.009092 0.009013 0.008920 0.008813 0.008690 0.008553 0.008399 0.008231 0.008046 0.007847 0.007633 0.007405 0.007161 0.006904 0.006631 0.006344 0.006045 0.005733 0.005408 0.005070 0.004720 0.004359 0.003988 0.003609 0.003224 0.002837 0.002460 0.002118 0.001855 0.001729 0.001799 0.002086 0.002508 0.002842
0.003040 0.001402 0.000930 0.000991 0.001080 0.001090 0.001114 0.001198 0.001333 0.001500 0.001684 0.001876 0.002066 0.002249 0.002428 0.002603 0.002777 0.002946 0.003107 0.003258 0.003397 0.003527 0.003649 0.003764 0.003871 0.003970 0.004060 0.004144 0.004221 0.004294 0.004360 0.004420 0.004471 0.004513 0.004547 0.004575 0.004597 0.004616 0.004632 0.004644 0.004652 0.004653 0.004648 0.004638 0.004628 0.004619 0.004614 0.004610 0.004603 0.004589 0.004570 0.004545 0.004521 0.004498 0.004479 0.004463 0.004452 0.004448 0.004449 0.004447 0.004436 0.004415 0.004393 0.004374 0.004360 0.004352 0.004349 0.004351 0.004358 0.004370 0.004384 0.004402 0.004422 0.004442 0.004463 0.004484 0.004505 0.004526 0.004548 0.004569 0.004589 0.004607 0.004624 0.004637 0.004648 0.004654 0.004657 0.004655 0.004650 0.004640 0.004627 0.004609 0.004586 0.004559 0.004526 0.004486 0.004439 0.004386 0.004325 0.004257 0.004181 0.004098 0.004007 0.003909 0.003804 0.003692 0.003573 0.003447 0.003314 0.003174 0.003027 0.002874 0.002714 0.002547 0.002375 0.002198 0.002015 0.001830 0.001642 0.001459 0.001293 0.001177 0.001165 0.001336 0.001777 0.002532 0.003540 0.004580
0.012243 0.005470 0.002515 0.001477 0.001067 0.000813 0.000669 0.000629 0.000658 0.000718 0.000792 0.000869 0.000947 0.001024 0.001100 0.001176 0.001253 0.001328 0.001401 0.001468 0.001530 0.001587 0.001641 0.001692 0.001740 0.001783 0.001823 0.001859 0.001892 0.001925 0.001954 0.001981 0.002003 0.002021 0.002034 0.002045 0.002054 0.002061 0.002067 0.002073 0.002076 0.002076 0.002071 0.002064 0.002057 0.002052 0.002050 0.002049 0.002045 0.002038 0.002025 0.002010 0.001995 0.001984 0.001978 0.001977 0.001980 0.001983 0.001986 0.001985 0.001980 0.001970 0.001958 0.001947 0.001938 0.001932 0.001928 0.001928 0.001931 0.001936 0.001944 0.001953 0.001964 0.001975 0.001986 0.001997 0.002008 0.002018 0.002029 0.002039 0.002049 0.002058 0.002066 0.002071 0.002075 0.002077 0.002077 0.002074 0.002070 0.002064 0.002056 0.002047 0.002037 0.002024 0.002009 0.001991 0.001971 0.001947 0.001920 0.001889 0.001856 0.001819 0.001778 0.001735 0.001689 0.001640 0.001588 0.001533 0.001475 0.001414 0.001349 0.001282 0.001212 0.001138 0.001062 0.000984 0.000904 0.000823 0.000743 0.000671 0.000624 0.000642 0.000795 0.001186 0.001935 0.003116 0.004675 0.006362
0.014303 0.007570 0.003736 0.001954 0.001138 0.000685 0.000431 0.000322 0.000297 0.000309 0.000333 0.000361 0.000389 0.000417 0.000445 0.000473 0.000502 0.000531 0.000559 0.000585 0.000609 0.000632 0.000653 0.000673 0.000692 0.000709 0.000724 0.000738 0.000751 0.000764 0.000776 0.000787 0.000795 0.000802 0.000806 0.000810 0.000813 0.000815 0.000818 0.000820 0.000821 0.000821 0.000818 0.000814 0.000810 0.000808 0.000808 0.000808 0.000807 0.000804 0.000797 0.000788 0.000780 0.000775 0.000773 0.000774 0.000778 0.000782 0.000785 0.000786 0.000784 0.000779 0.000774 0.000768 0.000762 0.000758 0.000756 0.000755 0.000755 0.000758 0.000761 0.000766 0.000771 0.000776 0.000781 0.000787 0.000792 0.000797 0.000802 0.000806 0.000811 0.000815 0.000818 0.000821 0.000822 0.000822 0.000821 0.000819 0.000817 0.000814 0.000810 0.000806 0.000802 0.000796 0.000790 0.000783 0.000775 0.000766 0.000755 0.000743 0.000730 0.000715 0.000699 0.000682 0.000664 0.000645 0.000625 0.000604 0.000581 0.000558 0.000533 0.000506 0.000479 0.000450 0.000420 0.000390 0.000358 0.000327 0.000299 0.000282 0.000297 0.000391 0.000654 0.001215 0.002228 0.003802 0.005891 0.008215
0.014994 0.008870 0.004663 0.002396 0.001274 0.000667 0.000336 0.000183 0.000130 0.000119 0.000124 0.000132 0.000141 0.000150 0.000159 0.000169 0.000178 0.000187 0.000197 0.000205 0.000213 0.000221 0.000228 0.000235 0.000242 0.000247 0.000253 0.000257 0.000262 0.000266 0.000271 0.000275 0.000278 0.000280 0.000281 0.000282 0.000283 0.000284 0.000285 0.000286 0.000286 0.000286 0.000285 0.000283 0.000281 0.000280 0.000280 0.000281 0.000281 0.000280 0.000276 0.000272 0.000268 0.000266 0.000265 0.000266 0.000269 0.000271 0.000273 0.000274 0.000273 0.000272 0.000269 0.000266 0.000263 0.000261 0.000260 0.000259 0.000259 0.000260 0.000262 0.000264 0.000266 0.000268 0.000270 0.000273 0.000275 0.000277 0.000279 0.000281 0.000283 0.000284 0.000286 0.000287 0.000287 0.000287 0.000286 0.000285 0.000284 0.000282 0.000281 0.000279 0.000278 0.000276 0.000274 0.000271 0.000268 0.000265 0.000261 0.000257 0.000253 0.000247 0.000242 0.000236 0.000230 0.000223 0.000216 0.000209 0.000201 0.000193 0.000185 0.000176 0.000166 0.000157 0.000146 0.000136 0.000125 0.000115 0.000109 0.000116 0.000162 0.000304 0.000646 0.001349 0.002604 0.004555 0.007174 0.010182
0.017051 0.010294 0.005508 0.002811 0.001440 0.000710 0.000320 0.000136 0.000065 0.000044 0.000041 0.000042 0.000045 0.000047 0.000050 0.000053 0.000055 0.000058 0.000061 0.000063 0.000065 0.000067 0.000070 0.000072 0.000074 0.000075 0.000077 0.000078 0.000080 0.000081 0.000082 0.000084 0.000085 0.000085 0.000086 0.000086 0.000086 0.000086 0.000086 0.000087 0.000087 0.000087 0.000086 0.000086 0.000085 0.000085 0.000085 0.000085 0.000086 0.000085 0.000084 0.000082 0.000081 0.000080 0.000079 0.000080 0.000081 0.000082 0.000083 0.000084 0.000083 0.000083 0.000082 0.000080 0.000079 0.000078 0.000078 0.000077 0.000077 0.000078 0.000078 0.000079 0.000080 0.000081 0.000082 0.000082 0.000083 0.000084 0.000085 0.000086 0.000086 0.000087 0.000087 0.000088 0.000088 0.000088 0.000087 0.000087 0.000086 0.000086 0.000085 0.000084 0.000084 0.000083 0.000083 0.000082 0.000081 0.000080 0.000079 0.000078 0.000076 0.000075 0.000073 0.000071 0.000069 0.000067 0.000065 0.000063 0.000061 0.000059 0.000056 0.000053 0.000050 0.000047 0.000044 0.000041 0.000038 0.000036 0.000039 0.000057 0.000121 0.000295 0.000704 0.001538 0.003024 0.005340 0.008470 0.012115
0.019371 0.011792 0.006351 0.003225 0.001622 0.000781 0.000339 0.000129 0.000046 0.000019 0.000013 0.000012 0.000012 0.000013 0.000014 0.000014 0.000015 0.000016 0.000016 0.000017 0.000017 0.000018 0.000018 0.000019 0.000019 0.000020 0.000020 0.000021 0.000021 0.000021 0.000022 0.000022 0.000022 0.000022 0.000023 0.000023 0.000023 0.000023 0.000023 0.000023 0.000023 0.000023 0.000023 0.000022 0.000022 0.000022 0.000022 0.000022 0.000023 0.000022 0.000022 0.000021 0.000021 0.000021 0.000020 0.000021 0.000021 0.000022 0.000022 0.000022 0.000022 0.000022 0.000021 0.000021 0.000021 0.000020 0.000020 0.000020 0.000020 0.000020 0.000020 0.000020 0.000021 0.000021 0.000021 0.000022 0.000022 0.000022 0.000022 0.000023 0.000023 0.000023 0.000023 0.000023 0.000023 0.000023 0.000023 0.000023 0.000023 0.000022 0.000022 0.000022 0.000022 0.000022 0.000022 0.000021 0.000021 0.000021 0.000021 0.000020 0.000020 0.000019 0.000019 0.000019 0.000018 0.000018 0.000017 0.000016 0.000016 0.000015 0.000015 0.000014 0.000013 0.000012 0.000012 0.000011 0.000010 0.000011 0.000017 0.000041 0.000116 0.000318 0.000790 0.001750 0.003465 0.006140 0.009758 0.013970
0.021733 0.013327 0.007220 0.003659 0.001819 0.000865 0.000370 0.000137 0.000044 0.000013 0.000005 0.000003 0.000003 0.000003 0.000003 0.000003 0.000003 0.000004 0.000004 0.000004 0.000004 0.000004 0.000004 0.000004 0.000004 0.000005 0.000005 0.000005 0.000005 0.000005 0.000005 0.000005 0.000005 0.000005 0.000005 0.000005 0.000005 0.000005 0.000005 0.000005 0.000005 0.000005 0.000005 0.000005 0.000005 0.000005 0.000005 0.000005 0.000005 0.000005 0.000005 0.000005 0.000005 0.000005 0.000005 0.000005 0.000005 0.000005 0.000005 0.000005 0.000005 0.000005 0.000005 0.000005 0.000005 0.000004 0.000004 0.000004 0.000004 0.000004 0.000004 0.000005 0.000005 0.000005 0.000005 0.000005 0.000005 0.000005 0.000005 0.000005 0.000005 0.000005 0.000005 0.000005 0.000005 0.000005 0.000005 0.000005 0.000005 0.000005 0.000005 0.000005 0.000005 0.000005 0.000005 0.000005 0.000005 0.000005 0.000005 0.000005 0.000004 0.000004 0.000004 0.000004 0.000004 0.000004 0.000004 0.000004 0.000004 0.000003 0.000003 0.000003 0.000003 0.000003 0.000003 0.000002 0.000003 0.000004 0.000012 0.000039 0.000125 0.000354 0.000887 0.001974 0.003918 0.006956 0.011076 0.015908
0.023838 0.014840 0.008124 0.004122 0.002032 0.000955 0.000406 0.000150 0.000047 0.000013 0.000003 0.000001 0.000001 0.000001 0.000001 0.000001 0.000001 0.000001 0.000001 0.000001 0.000001 0.000001 0.000001 0.000001 0.000001 0.000001 0.000001 0.000001 0.000001 0.000001 0.000001 0.000001 0.000001 0.000001 0.000001 0.000001 0.000001 0.000001 0.000001 0.000001 0.000001 0.000001 0.000001 0.000001 0.000001 0.000001 0.000001 0.000001 0.000001 0.000001 0.000001 0.000001 0.000001 0.000001 0.000001 0.000001 0.000001 0.000001 0.000001 0.000001 0.000001 0.000001 0.000001 0.000001 0.000001 0.000001 0.000001 0.000001 0.000001 0.000001 0.000001 0.000001 0.000001 0.000001 0.000001 0.000001 0.000001 0.000001 0.000001 0.000001 0.000001 0.000001 0.000001 0.000001 0.000001 0.000001 0.000001 0.000001 0.000001 0.000001 0.000001 0.000001 0.000001 0.000001 0.000001 0.000001 0.000001 0.000001 0.000001 0.000001 0.000001 0.000001 0.000001 0.000001 0.000001 0.000001 0.000001 0.000001 0.000001 0.000001 0.000001 0.000001 0.000001 0.000001 0.000001 0.000001 0.000001 0.000003 0.000011 0.000042 0.000137 0.000393 0.000989 0.002205 0.004383 0.007791 0.012429 0.017910
0.026238 0.016459 0.009079 0.004618 0.002261 0.001052 0.000443 0.000163 0.000051 0.000014 0.000003 0.000001 0.000000 0.000000 0.000000 0.000000 0.000000 0.000000 0.000000 0.000000 0.000000 0.000000 0.000000 0.000000 0.000000 0.000000 0.000000 0.000000 0.000000 0.000000 0.000000 0.000000 0.000000 0.000000 0.000000 0.000000 0.000000 0.000000 0.000000 0.000000 0.000000 0.000000 0.000000 0.000000 0.000000 0.000000 0.000000 0.000000 0.000000 0.000000 0.000000 0.000000 0.000000 0.000000 0.000000 0.000000 0.000000 0.000000 0.000000 0.000000 0.000000 0.000000 0.000000 0.000000 0.000000 0.000000 0.000000 0.000000 0.000000 0.000000 0.000000 0.000000 0.000000 0.000000 0.000000 0.000000 0.000000 0.000000 0.000000 0.000000 0.000000 0.000000 0.000000 0.000000 0.000000 0.000000 0.000000 0.000000 0.000000 0.000000 0.000000 0.000000 0.000000 0.000000 0.000000 0.000000 0.000000 0.000000 0.000000 0.000000 0.000000 0.000000 0.000000 0.000000 0.000000 0.000000 0.000000 0.000000 0.000000 0.000000 0.000000 0.000000 0.000000 0.000000 0.000000 0.000000 0.000001 0.000003 0.000012 0.000046 0.000151 0.000434 0.001093 0.002442 0.004859 0.008649 0.013815 0.019925
0.028711 0.018148 0.010084 0.005141 0.002504 0.001153 0.000482 0.000177 0.000056 0.000015 0.000003 0.000001 0.000000 0.000000 0.000000 0.000000 0.000000 0.000000 0.000000 0.000000 0.000000 0.000000 0.000000 0.000000 0.000000 0.000000 0.000000 0.000000 0.000000 0.000000 0.000000 0.000000 0.000000 0.000000 0.000000 0.000000 0.000000 0.000000 0.000000 0.000000 0.000000 0.000000 0.000000 0.000000 0.000000 0.000000 0.000000 0.000000 0.000000 0.000000 0.000000 0.000000 0.000000 0.000000 0.000000 0.000000 0.000000 0.000000 0.000000 0.000000 0.000000 0.000000 0.000000 0.000000 0.000000 0.000000 0.000000 0.000000 0.000000 0.000000 0.000000 0.000000 0.000000 0.000000 0.000000 0.000000 0.000000 0.000000 0.000000 0.000000 0.000000 0.000000 0.000000 0.000000 0.000000 0.000000 0.000000 0.000000 0.000000 0.000000 0.000000 0.000000 0.000000 0.000000 0.000000 0.000000 0.000000 0.000000 0.000000 0.000000 0.000000 0.000000 0.000000 0.000000 0.000000 0.000000 0.000000 0.000000 0.000000 0.000000 0.000000 0.000000 0.000000 0.000000 0.000000 0.000000 0.000001 0.000003 0.000013 0.000051 0.000166 0.000476 0.001201 0.002686 0.005351 0.009541 0.015279 0.022126
0.031424 0.019921 0.011126 0.005687 0.002759 0.001260 0.000523 0.000191 0.000060 0.000016 0.000004 0.000001 0.000000 0.000000 0.000000 0.000000 0.000000 0.000000 0.000000 0.000000 0.000000 0.000000 0.000000 0.000000 0.000000 0.000000 0.000000 0.000000 0.000000 0.000000 0.000000 0.000000 0.000000 0.000000 0.000000 0.000000 0.000000 0.000000 0.000000 0.000000 0.000000 0.000000 0.000000 0.000000 0.000000 0.000000 0.000000 0.000000 0.000000 0.000000 0.000000 0.000000 0.000000 0.000000 0.000000 0.000000 0.000000 0.000000 0.000000 0.000000 0.000000 0.000000 0.000000 0.000000 0.000000 0.000000 0.000000 0.000000 0.000000 0.000000 0.000000 0.000000 0.000000 0.000000 0.000000 0.000000 0.000000 0.000000 0.000000 0.000000 0.000000 0.000000 0.000000 0.000000 0.000000 0.000000 0.000000 0.000000 0.000000 0.000000 0.000000 0.000000 0.000000 0.000000 0.000000 0.000000 0.000000 0.000000 0.000000 0.000000 0.000000 0.000000 0.000000 0.000000 0.000000 0.000000 0.000000 0.000000 0.000000 0.000000 0.000000 0.000000 0.000000 0.000000 0.000000 0.000000 0.000001 0.000003 0.000015 0.000055 0.000181 0.000520 0.001313 0.002937 0.005859 0.010466 0.016809 0.024449
0.033836 0.021650 0.012184 0.006249 0.003023 0.001371 0.000564 0.000205 0.000064 0.000017 0.000004 0.000001 0.000000 0.000000 0.000000 0.000000 0.000000 0.000000 0.000000 0.000000 0.000000 0.000000 0.000000 0.000000 0.000000 0.000000 0.000000 0.000000 0.000000 0.000000 0.000000 0.000000 0.000000 0.000000 0.000000 0.000000 0.000000 0.000000 0.000000 0.000000 0.000000 0.000000 0.000000 0.000000 0.000000 0.000000 0.000000 0.000000 0.000000 0.000000 0.000000 0.000000 0.000000 0.000000 0.000000 0.000000 0.000000 0.000000 0.000000 0.000000 0.000000 0.000000 0.000000 0.000000 0.000000 0.000000 0.000000 0.000000 0.000000 0.000000 0.000000 0.000000 0.000000 0.000000 0.000000 0.000000 0.000000 0.000000 0.000000 0.000000 0.000000 0.000000 0.000000 0.000000 0.000000 0.000000 0.000000 0.000000 0.000000 0.000000 0.000000 0.000000 0.000000 0.000000 0.000000 0.000000 0.000000 0.000000 0.000000 0.000000 0.000000 0.000000 0.000000 0.000000 0.000000 0.000000 0.000000 0.000000 0.000000 0.000000 0.000000 0.000000 0.000000 0.000000 0.000000 0.000000 0.000001 0.000004 0.000016 0.000060 0.000197 0.000565 0.001427 0.003197 0.006384 0.011419 0.018368 0.026763
0.036478 0.023442 0.013264 0.006826 0.003297 0.001486 0.000608 0.000220 0.000069 0.000018 0.000004 0.000001 0.000000 0.000000 0.000000 0.000000 0.000000 0.000000 0.000000 0.000000 0.000000 0.000000 0.000000 0.000000 0.000000 0.000000 0.000000 0.000000 0.000000 0.000000 0.000000 0.000000 0.000000 0.000000 0.000000 0.000000 0.000000 0.000000 0.000000 0.000000 0.000000 0.000000 0.000000 0.000000 0.000000 0.000000 0.000000 0.000000 0.000000 0.000000 0.000000 0.000000 0.000000 0.000000 0.000000 0.000000 0.000000 0.000000 0.000000 0.000000 0.000000 0.000000 0.000000 0.000000 0.000000 0.000000 0.000000 0.000000 0.000000 0.000000 0.000000 0.000000 0.000000 0.000000 0.000000 0.000000 0.000000 0.000000 0.000000 0.000000 0.000000 0.000000 0.000000 0.000000 0.000000 0.000000 0.000000 0.000000 0.000000 0.000000 0.000000 0.000000 0.000000 0.000000 0.000000 0.000000 0.000000 0.000000 0.000000 0.000000 0.000000 0.000000 0.000000 0.000000 0.000000 0.000000 0.000000 0.000000 0.000000 0.000000 0.000000 0.000000 0.000000 0.000000 0.000000 0.000000 0.000001 0.000004 0.000017 0.000065 0.000213 0.000611 0.001546 0.003464 0.006924 0.012396 0.019962 0.029127
0.039118 0.025246 0.014362 0.007418 0.003580 0.001607 0.000654 0.000235 0.000074 0.000020 0.000004 0.000001 0.000000 0.000000 0.000000 0.000000 0.000000 0.000000 0.000000 0.000000 0.000000 0.000000 0.000000 0.000000 0.000000 0.000000 0.000000 0.000000 0.000000 0.000000 0.000000 0.000000 0.000000 0.000000 0.000000 0.000000 0.000000 0.000000 0.000000 0.000000 0.000000 0.000000 0.000000 0.000000 0.000000 0.000000 0.000000 0.000000 0.000000 0.000000 0.000000 0.000000 0.000000 0.000000 0.000000 0.000000 0.000000 0.000000 0.000000 0.000000 0.000000 0.000000 0.000000 0.000000 0.000000 0.000000 0.000000 0.000000 0.000000 0.000000 0.000000 0.000000 0.000000 0.000000 0.000000 0.000000 0.000000 0.000000 0.000000 0.000000 0.000000 0.000000 0.000000 0.000000 0.000000 0.000000 0.000000 0.000000 0.000000 0.000000 0.000000 0.000000 0.000000 0.000000 0.000000 0.000000 0.000000 0.000000 0.000000 0.000000 0.000000 0.000000 0.000000 0.000000 0.000000 0.000000 0.000000 0.000000 0.000000 0.000000 0.000000 0.000000 0.000000 0.000000 0.000000 0.000000 0.000001 0.000004 0.000018 0.000070 0.000230 0.000659 0.001668 0.003740 0.007479 0.013397 0.021577 0.031474
0.041689 0.027029 0.015466 0.008023 0.003873 0.001733 0.000702 0.000251 0.000078 0.000021 0.000005 0.000001 0.000000 0.000000 0.000000 0.000000 0.000000 0.000000 0.000000 0.000000 0.000000 0.000000 0.000000 0.000000 0.000000 0.000000 0.000000 0.000000 0.000000 0.000000 0.000000 0.000000 0.000000 0.000000 0.000000 0.000000 0.000000 0.000000 0.000000 0.000000 0.000000 0.000000 0.000000 0.000000 0.000000 0.000000 0.000000 0.000000 0.000000 0.000000 0.000000 0.000000 0.000000 0.000000 0.000000 0.000000 0.000000 0.000000 0.000000 0.000000 0.000000 0.000000 0.000000 0.000000 0.000000 0.000000 0.000000 0.000000 0.000000 0.000000 0.000000 0.000000 0.000000 0.000000 0.000000 0.000000 0.000000 0.000000 0.000000 0.000000 0.000000 0.000000 0.000000 0.000000 0.000000 0.000000 0.000000 0.000000 0.000000 0.000000 0.000000 0.000000 0.000000 0.000000 0.000000 0.000000 0.000000 0.000000 0.000000 0.000000 0.000000 0.000000 0.000000 0.000000 0.000000 0.000000 0.000000 0.000000 0.000000 0.000000 0.000000 0.000000 0.000000 0.000000 0.000000 0.000000 0.000001 0.000004 0.000020 0.000075 0.000247 0.000709 0.001794 0.004025 0.008051 0.014425 0.023237 0.033906
0.044068 0.028761 0.016570 0.008640 0.004177 0.001865 0.000752 0.000269 0.000084 0.000022 0.000005 0.000001 0.000000 0.000000 0.000000 0.000000 0.000000 0.000000 0.000000 0.000000 0.000000 0.000000 0.000000 0.000000 0.000000 0.000000 0.000000 0.000000 0.000000 0.000000 0.000000 0.000000 0.000000 0.000000 0.000000 0.000000 0.000000 0.000000 0.000000 0.000000 0.000000 0.000000 0.000000 0.000000 0.000000 0.000000 0.000000 0.000000 0.000000 0.000000 0.000000 0.000000 0.000000 0.000000 0.000000 0.000000 0.000000 0.000000 0.000000 0.000000 0.000000 0.000000 0.000000 0.000000 0.000000 0.000000 0.000000 0.000000 0.000000 0.000000 0.000000 0.000000 0.000000 0.000000 0.000000 0.000000 0.000000 0.000000 0.000000 0.000000 0.000000 0.000000 0.000000 0.000000 0.000000 0.000000 0.000000 0.000000 0.000000 0.000000 0.000000 0.000000 0.000000 0.000000 0.000000 0.000000 0.000000 0.000000 0.000000 0.000000 0.000000 0.000000 0.000000 0.000000 0.000000 0.000000 0.000000 0.000000 0.000000 0.000000 0.000000 0.000000 0.000000 0.000000 0.000000 0.000000 0.000001 0.000005 0.000021 0.000080 0.000265 0.000760 0.001924 0.004319 0.008641 0.015481 0.024939 0.036408
0.046416 0.030489 0.017685 0.009271 0.004490 0.002002 0.000806 0.000287 0.000089 0.000024 0.000005 0.000001 0.000000 0.000000 0.000000 0.000000 0.000000 0.000000 0.000000 0.000000 0.000000 0.000000 0.000000 0.000000 0.000000 0.000000 0.000000 0.000000 0.000000 0.000000 0.000000 0.000000 0.000000 0.000000 0.000000 0.000000 0.000000 0.000000 0.000000 0.000000 0.000000 0.000000 0.000000 0.000000 0.000000 0.000000 0.000000 0.000000 0.000000 0.000000 0.000000 0.000000 0.000000 0.000000 0.000000 0.000000 0.000000 0.000000 0.000000 0.000000 0.000000 0.000000 0.000000 0.000000 0.000000 0.000000 0.000000 0.000000 0.000000 0.000000 0.000000 0.000000 0.000000 0.000000 0.000000 0.000000 0.000000 0.000000 0.000000 0.000000 0.000000 0.000000 0.000000 0.000000 0.000000 0.000000 0.000000 0.000000 0.000000 0.000000 0.000000 0.000000 0.000000 0.000000 0.000000 0.000000 0.000000 0.000000 0.000000 0.000000 0.000000 0.000000 0.000000 0.000000 0.000000 0.000000 0.000000 0.000000 0.000000 0.000000 0.000000 0.000000 0.000000 0.000000 0.000000 0.000000 0.000001 0.000005 0.000023 0.000086 0.000283 0.000813 0.002059 0.004623 0.009249 0.016566 0.026667 0.038886
0.048965 0.032283 0.018827 0.009919 0.004815 0.002146 0.000861 0.000306 0.000095 0.000025 0.000006 0.000001 0.000000 0.000000 0.000000 0.000000 0.000000 0.000000 0.000000 0.000000 0.000000 0.000000 0.000000 0.000000 0.000000 0.000000 0.000000 0.000000 0.000000 0.000000 0.000000 0.000000 0.000000 0.000000 0.000000 0.000000 0.000000 0.000000 0.000000 0.000000 0.000000 0.000000 0.000000 0.000000 0.000000 0.000000 0.000000 0.000000 0.000000 0.000000 0.000000 0.000000 0.000000 0.000000 0.000000 0.000000 0.000000 0.000000 0.000000 0.000000 0.000000 0.000000 0.000000 0.000000 0.000000 0.000000 0.000000 0.000000 0.000000 0.000000 0.000000 0.000000 0.000000 0.000000 0.000000 0.000000 0.000000 0.000000 0.000000 0.000000 0.000000 0.000000 0.000000 0.000000 0.000000 0.000000 0.000000 0.000000 0.000000 0.000000 0.000000 0.000000 0.000000 0.000000 0.000000 0.000000 0.000000 0.000000 0.000000 0.000000 0.000000 0.000000 0.000000 0.000000 0.000000 0.000000 0.000000 0.000000 0.000000 0.000000 0.000000 0.000000 0.000000 0.000000 0.000000 0.000000 0.000001 0.000005 0.000024 0.000092 0.000302 0.000869 0.002200 0.004938 0.009880 0.017690 0.028466 0.041497
0.051443 0.034108 0.020005 0.010589 0.005153 0.002295 0.000920 0.000326 0.000101 0.000027 0.000006 0.000001 0.000000 0.000000 0.000000 0.000000 0.000000 0.000000 0.000000 0.000000 0.000000 0.000000 -0.000000 -0.000000 -0.000000 -0.000000 -0.000000 0.000000 0.000000 -0.000000 -0.000000 -0.000000 -0.000000 -0.000000 -0.000000 -0.000000 -0.000000 -0.000000 -0.000000 -0.000000 -0.000000 -0.000000 -0.000000 -0.000000 -0.000000 -0.000000 -0.000000 -0.000000 0.000000 0.000000 -0.000000 -0.000000 -0.000000 -0.000000 -0.000000 -0.000000 -0.000000 0.000000 0.000000 0.000000 0.000000 0.000000 0.000000 -0.000000 -0.000000 -0.000000 -0.000000 -0.000000 -0.000000 -0.000000 -0.000000 -0.000000 -0.000000 -0.000000 -0.000000 -0.000000 -0.000000 0.000000 0.000000 0.000000 0.000000 0.000000 0.000000 0.000000 0.000000 0.000000 0.000000 0.000000 0.000000 -0.000000 -0.000000 -0.000000 -0.000000 -0.000000 -0.000000 -0.000000 -0.000000 -0.000000 -0.000000 -0.000000 -0.000000 -0.000000 -0.000000 -0.000000 -0.000000 -0.000000 0.000000 0.000000 0.000000 0.000000 0.000000 0.000000 0.000000 0.000000 0.000000 0.000000 0.000001 0.000006 0.000026 0.000098 0.000322 0.000926 0.002346 0.005267 0.010537 0.018866 0.030361 0.044266
0.054244 0.036069 0.021242 0.011288 0.005504 0.002452 0.000981 0.000347 0.000107 0.000028 0.000006 0.000001 0.000000 0.000000 0.000000 0.000000 0.000000 0.000000 0.000000 0.000000 0.000000 0.000000 -0.000000 -0.000000 -0.000000 -0.000000 -0.000000 -0.000000 -0.000000 -0.000000 -0.000000 -0.000000 -0.000000 -0.000000 -0.000000 -0.000000 -0.000000 -0.000000 -0.000000 -0.000000 -0.000000 -0.000000 -0.000000 -0.000000 -0.000000 -0.000000 -0.000000 -0.000000 -0.000000 -0.000000 -0.000000 -0.000000 -0.000000 -0.000000 -0.000000 -0.000000 -0.000000 -0.000000 -0.000000 -0.000000 -0.000000 -0.000000 -0.000000 -0.000000 -0.000000 -0.000000 -0.000000 -0.000000 0.000000 -0.000000 -0.000000 -0.000000 -0.000000 -0.000000 -0.000000 -0.000000 -0.000000 -0.000000 -0.000000 -0.000000 -0.000000 -0.000000 -0.000000 -0.000000 -0.000000 -0.000000 -0.000000 -0.000000 -0.000000 -0.000000 -0.000000 -0.000000 -0.000000 -0.000000 -0.000000 -0.000000 -0.000000 -0.000000 -0.000000 -0.000000 -0.000000 -0.000000 -0.000000 0.000000 -0.000000 -0.000000 0.000000 0.000000 0.000000 0.000000 0.000000 0.000000 0.000000 0.000000 0.000000 0.000000 0.000001 0.000006 0.000027 0.000104 0.000343 0.000986 0.002498 0.005609 0.011224 0.020106 0.032387 0.047304
0.057321 0.038171 0.022548 0.012019 0.005870 0.002615 0.001045 0.000369 0.000113 0.000030 0.000007 0.000001 0.000000 0.000000 0.000000 0.000000 0.000000 0.000000 0.000000 0.000000 0.000000 0.000000 -0.000000 -0.000000 0.000000 0.000000 0.000000 0.000000 0.000000 0.000000 0.000000 0.000000 0.000000 0.000000 0.000000 0.000000 0.000000 0.000000 0.000000 0.000000 0.000000 0.000000 0.000000 0.000000 0.000000 0.000000 0.000000 0.000000 0.000000 0.000000 0.000000 0.000000 0.000000 0.000000 0.000000 0.000000 0.000000 0.000000 0.000000 0.000000 0.000000 0.000000 0.000000 0.000000 0.000000 0.000000 0.000000 0.000000 0.000000 0.000000 0.000000 0.000000 0.000000 0.000000 0.000000 0.000000 0.000000 0.000000 0.000000 0.000000 0.000000 0.000000 0.000000 0.000000 0.000000 0.000000 0.000000 0.000000 0.000000 0.000000 0.000000 0.000000 0.000000 0.000000 0.000000 0.000000 0.000000 0.000000 0.000000 0.000000 0.000000 0.000000 0.000000 0.000000 -0.000000 -0.000000 0.000000 0.000000 0.000000 0.000000 0.000000 0.000000 0.000000 0.000000 0.000000 0.000000 0.000001 0.000007 0.000029 0.000111 0.000365 0.001049 0.002657 0.005968 0.011945 0.021411 0.034528 0.050513