# vtk DataFile Version 2.0
test
ASCII
DATASET STRUCTURED_POINTS
DIMENSIONS 128 128 1
ORIGIN 0 0 0
SPACING 1 1 1
POINT_DATA 16384
SCALARS values float
LOOKUP_TABLE default
0.000317 0.000302 -0.000435 -0.000052 0.000127 0.001371 0.001983 0.003299 0.003664 0.004684 0.005831 0.007251 0.008528 0.009671 0.011371 0.012528 0.013718 0.015215 0.016223 0.017414 0.018470 0.019360 0.020523 0.021272 0.022101 0.023071 0.023736 0.024558 0.025447 0.026137 0.026904 0.027786 0.028468 0.029280 0.030081 0.030742 0.031368 0.031985 0.032392 0.032733 0.033042 0.033261 0.033341 0.033372 0.033342 0.033128 0.032692 0.032167 0.031635 0.030900 0.029994 0.029579 0.030555 0.032290 0.032222 0.030430 0.030645 0.031877 0.031297 0.031682 0.032117 0.031984 0.032855 0.032848 0.033468 0.033888 0.034463 0.034992 0.035534 0.036067 0.036736 0.037300 0.037988 0.038585 0.039292 0.039843 0.040444 0.040950 0.041505 0.042028 0.042425 0.042873 0.043246 0.043692 0.044022 0.044314 0.044630 0.044844 0.045051 0.045102 0.045075 0.045027 0.044788 0.044498 0.044075 0.043535 0.042998 0.042279 0.041512 0.040731 0.039784 0.038854 0.037825 0.036655 0.035531 0.034313 0.033030 0.031711 0.030213 0.028677 0.027140 0.025477 0.023740 0.021951 0.020042 0.018108 0.016155 0.014103 0.011999 0.009832 0.007576 0.005419 0.003552 0.002020 0.000863 0.000174 -0.000057 0.000047
-0.001685 -0.000295 0.000187 0.000688 0.001183 0.001973 0.002690 0.003564 0.004257 0.005139 0.006133 0.007248 0.008364 0.009476 0.010715 0.011830 0.012931 0.014074 0.015083 0.016088 0.017029 0.017902 0.018796 0.019566 0.020321 0.021079 0.021749 0.022434 0.023117 0.023739 0.024364 0.025001 0.025585 0.026183 0.026761 0.027282 0.027761 0.028197 0.028538 0.028815 0.029039 0.029193 0.029264 0.029269 0.029196 0.029007 0.028694 0.028301 0.027863 0.027369 0.026905 0.026739 0.027093 0.027648 0.027645 0.027148 0.027148 0.027469 0.027428 0.027587 0.027787 0.027901 0.028248 0.028440 0.028785 0.029119 0.029506 0.029897 0.030302 0.030720 0.031183 0.031636 0.032122 0.032595 0.033086 0.033534 0.033977 0.034388 0.034795 0.035178 0.035514 0.035843 0.036145 0.036446 0.036703 0.036928 0.037135 0.037291 0.037406 0.037442 0.037412 0.037326 0.037141 0.036884 0.036539 0.036113 0.035633 0.035064 0.034435 0.033760 0.033006 0.032214 0.031359 0.030435 0.029484 0.028480 0.027424 0.026315 0.025123 0.023882 0.022602 0.021256 0.019850 0.018391 0.016869 0.015309 0.013716 0.012074 0.010398 0.008698 0.006998 0.005386 0.003953 0.002744 0.001776 0.001048 0.000477 -0.000114
-0.000695 0.000094 0.000725 0.001282 0.001821 0.002415 0.003040 0.003703 0.004381 0.005129 0.005961 0.006860 0.007795 0.008754 0.009735 0.010698 0.011642 0.012571 0.013455 0.014304 0.015110 0.015876 0.016609 0.017293 0.017942 0.018563 0.019148 0.019711 0.020253 0.020767 0.021262 0.021742 0.022201 0.022643 0.023064 0.023453 0.023807 0.024119 0.024380 0.024591 0.024754 0.024865 0.024917 0.024911 0.024838 0.024689 0.024463 0.024178 0.023858 0.023532 0.023267 0.023161 0.023247 0.023391 0.023388 0.023264 0.023231 0.023290 0.023332 0.023407 0.023510 0.023630 0.023798 0.023974 0.024188 0.024426 0.024688 0.024966 0.025258 0.025567 0.025893 0.026231 0.026579 0.026931 0.027282 0.027621 0.027948 0.028261 0.028561 0.028844 0.029105 0.029349 0.029577 0.029790 0.029979 0.030144 0.030283 0.030389 0.030455 0.030472 0.030437 0.030348 0.030196 0.029983 0.029705 0.029367 0.028972 0.028518 0.028013 0.027459 0.026856 0.026209 0.025516 0.024778 0.024004 0.023190 0.022334 0.021434 0.020484 0.019492 0.018460 0.017384 0.016265 0.015104 0.013904 0.012673 0.011417 0.010140 0.008851 0.007568 0.006319 0.005148 0.004098 0.003191 0.002420 0.001740 0.001047 0.000172
-0.000572 0.000496 0.001238 0.001789 0.002257 0.002708 0.003175 0.003675 0.004216 0.004815 0.005475 0.006190 0.006943 0.007720 0.008510 0.009297 0.010071 0.010827 0.011556 0.012254 0.012920 0.013554 0.014155 0.014721 0.015255 0.015760 0.016237 0.016688 0.017115 0.017519 0.017902 0.018265 0.018609 0.018934 0.019239 0.019520 0.019774 0.019997 0.020187 0.020340 0.020458 0.020537 0.020574 0.020566 0.020509 0.020400 0.020241 0.020043 0.019824 0.019610 0.019440 0.019349 0.019338 0.019355 0.019339 0.019293 0.019265 0.019268 0.019288 0.019325 0.019381 0.019457 0.019556 0.019673 0.019811 0.019969 0.020144 0.020334 0.020538 0.020755 0.020984 0.021224 0.021471 0.021722 0.021973 0.022219 0.022458 0.022687 0.022906 0.023112 0.023305 0.023484 0.023650 0.023802 0.023937 0.024052 0.024146 0.024214 0.024252 0.024255 0.024218 0.024140 0.024016 0.023846 0.023627 0.023361 0.023050 0.022694 0.022296 0.021859 0.021382 0.020869 0.020321 0.019739 0.019124 0.018478 0.017800 0.017087 0.016340 0.015560 0.014748 0.013905 0.013031 0.012129 0.011203 0.010258 0.009303 0.008346 0.007400 0.006481 0.005611 0.004815 0.004112 0.003500 0.002955 0.002414 0.001775 0.000897
0.000145 0.001129 0.001814 0.002281 0.002620 0.002909 0.003200 0.003523 0.003896 0.004327 0.004816 0.005357 0.005936 0.006540 0.007158 0.007778 0.008390 0.008989 0.009568 0.010123 0.010654 0.011158 0.011635 0.012085 0.012508 0.012906 0.013279 0.013629 0.013958 0.014265 0.014553 0.014822 0.015074 0.015309 0.015526 0.015725 0.015903 0.016060 0.016194 0.016303 0.016387 0.016443 0.016469 0.016464 0.016425 0.016350 0.016244 0.016112 0.015967 0.015827 0.015712 0.015636 0.015598 0.015577 0.015553 0.015523 0.015499 0.015488 0.015490 0.015504 0.015532 0.015573 0.015630 0.015701 0.015787 0.015887 0.016000 0.016126 0.016262 0.016409 0.016566 0.016731 0.016902 0.017077 0.017252 0.017426 0.017595 0.017759 0.017915 0.018063 0.018201 0.018329 0.018447 0.018553 0.018647 0.018726 0.018788 0.018831 0.018851 0.018845 0.018812 0.018747 0.018649 0.018516 0.018348 0.018145 0.017906 0.017634 0.017328 0.016992 0.016624 0.016228 0.015805 0.015354 0.014879 0.014378 0.013853 0.013302 0.012726 0.012125 0.011502 0.010856 0.010190 0.009508 0.008813 0.008114 0.007418 0.006738 0.006088 0.005484 0.004942 0.004477 0.004093 0.003778 0.003492 0.003171 0.002711 0.001979
0.000749 0.001876 0.002493 0.002815 0.002982 0.003085 0.003185 0.003322 0.003515 0.003774 0.004095 0.004471 0.004889 0.005336 0.005800 0.006270 0.006738 0.007196 0.007641 0.008068 0.008476 0.008864 0.009230 0.009574 0.009898 0.010200 0.010483 0.010746 0.010991 0.011219 0.011430 0.011625 0.011805 0.011971 0.012123 0.012261 0.012384 0.012492 0.012585 0.012661 0.012719 0.012759 0.012779 0.012777 0.012752 0.012705 0.012636 0.012552 0.012459 0.012369 0.012291 0.012232 0.012192 0.012163 0.012137 0.012113 0.012093 0.012078 0.012071 0.012073 0.012083 0.012103 0.012132 0.012172 0.012223 0.012283 0.012353 0.012433 0.012521 0.012617 0.012721 0.012831 0.012946 0.013065 0.013185 0.013304 0.013421 0.013535 0.013644 0.013747 0.013844 0.013933 0.014015 0.014088 0.014151 0.014204 0.014244 0.014270 0.014279 0.014270 0.014241 0.014190 0.014115 0.014015 0.013889 0.013737 0.013559 0.013356 0.013127 0.012875 0.012599 0.012302 0.011982 0.011643 0.011284 0.010906 0.010509 0.010093 0.009660 0.009209 0.008742 0.008260 0.007767 0.007267 0.006765 0.006271 0.005795 0.005350 0.004953 0.004620 0.004365 0.004197 0.004114 0.004096 0.004102 0.004064 0.003888 0.003452
0.002360 0.002961 0.003304 0.003420 0.003385 0.003285 0.003186 0.003132 0.003146 0.003236 0.003398 0.003623 0.003896 0.004205 0.004535 0.004876 0.005219 0.005557 0.005887 0.006205 0.006508 0.006796 0.007068 0.007323 0.007562 0.007785 0.007992 0.008184 0.008362 0.008526 0.008676 0.008814 0.008941 0.009056 0.009160 0.009254 0.009338 0.009411 0.009474 0.009526 0.009566 0.009594 0.009609 0.009610 0.009595 0.009567 0.009525 0.009472 0.009415 0.009357 0.009306 0.009263 0.009229 0.009202 0.009180 0.009160 0.009142 0.009128 0.009119 0.009114 0.009115 0.009122 0.009136 0.009156 0.009184 0.009218 0.009260 0.009308 0.009363 0.009424 0.009491 0.009562 0.009638 0.009716 0.009796 0.009876 0.009955 0.010032 0.010106 0.010177 0.010242 0.010303 0.010358 0.010407 0.010449 0.010483 0.010508 0.010523 0.010527 0.010517 0.010494 0.010454 0.010399 0.010325 0.010233 0.010123 0.009994 0.009846 0.009680 0.009496 0.009294 0.009076 0.008843 0.008594 0.008330 0.008052 0.007760 0.007455 0.007137 0.006808 0.006467 0.006119 0.005766 0.005414 0.005070 0.004743 0.004448 0.004200 0.004017 0.003917 0.003914 0.004016 0.004217 0.004497 0.004815 0.005108 0.005297 0.005291
0.003482 0.004038 0.004198 0.004096 0.003846 0.003536 0.003238 0.002997 0.002837 0.002768 0.002783 0.002872 0.003020 0.003209 0.003427 0.003660 0.003901 0.004141 0.004377 0.004605 0.004823 0.005030 0.005225 0.005409 0.005580 0.005739 0.005887 0.006023 0.006148 0.006263 0.006368 0.006463 0.006550 0.006629 0.006699 0.006762 0.006818 0.006867 0.006909 0.006943 0.006970 0.006990 0.007001 0.007003 0.006995 0.006979 0.006954 0.006922 0.006887 0.006852 0.006818 0.006788 0.006762 0.006741 0.006723 0.006707 0.006693 0.006681 0.006671 0.006665 0.006662 0.006662 0.006667 0.006676 0.006690 0.006709 0.006732 0.006761 0.006794 0.006831 0.006873 0.006918 0.006966 0.007017 0.007068 0.007121 0.007173 0.007224 0.007273 0.007320 0.007364 0.007404 0.007440 0.007472 0.007499 0.007521 0.007536 0.007544 0.007545 0.007536 0.007518 0.007489 0.007448 0.007396 0.007331 0.007253 0.007161 0.007057 0.006939 0.006808 0.006666 0.006511 0.006344 0.006166 0.005978 0.005780 0.005571 0.005353 0.005127 0.004893 0.004653 0.004410 0.004168 0.003933 0.003714 0.003523 0.003375 0.003290 0.003287 0.003387 0.003607 0.003954 0.004425 0.004999 0.005638 0.006288 0.006881 0.007346
0.004981 0.005245 0.005161 0.004834 0.004366 0.003850 0.003357 0.002936 0.002614 0.002398 0.002283 0.002254 0.002294 0.002384 0.002510 0.002657 0.002816 0.002979 0.003141 0.003299 0.003450 0.003594 0.003730 0.003858 0.003977 0.004088 0.004190 0.004284 0.004370 0.004449 0.004520 0.004585 0.004643 0.004695 0.004742 0.004784 0.004820 0.004852 0.004880 0.004902 0.004920 0.004933 0.004941 0.004943 0.004939 0.004930 0.004916 0.004897 0.004876 0.004854 0.004832 0.004812 0.004794 0.004779 0.004765 0.004753 0.004742 0.004732 0.004724 0.004718 0.004713 0.004711 0.004712 0.004715 0.004721 0.004731 0.004744 0.004760 0.004779 0.004801 0.004827 0.004855 0.004885 0.004916 0.004949 0.004983 0.005016 0.005049 0.005081 0.005112 0.005140 0.005166 0.005190 0.005210 0.005227 0.005240 0.005249 0.005253 0.005252 0.005245 0.005232 0.005211 0.005182 0.005146 0.005101 0.005047 0.004984 0.004912 0.004831 0.004741 0.004643 0.004535 0.004420 0.004297 0.004167 0.004029 0.003885 0.003734 0.003578 0.003417 0.003254 0.003092 0.002935 0.002791 0.002669 0.002585 0.002556 0.002604 0.002753 0.003026 0.003444 0.004016 0.004741 0.005602 0.006562 0.007573 0.008584 0.009548
0.006478 0.006473 0.006159 0.005616 0.004940 0.004225 0.003547 0.002958 0.002486 0.002137 0.001906 0.001776 0.001727 0.001738 0.001791 0.001871 0.001967 0.002070 0.002177 0.002282 0.002383 0.002480 0.002572 0.002658 0.002739 0.002813 0.002882 0.002945 0.003003 0.003055 0.003103 0.003146 0.003184 0.003218 0.003249 0.003276 0.003300 0.003320 0.003337 0.003352 0.003363 0.003372 0.003377 0.003378 0.003377 0.003372 0.003364 0.003353 0.003341 0.003327 0.003313 0.003300 0.003288 0.003277 0.003267 0.003258 0.003250 0.003243 0.003237 0.003231 0.003227 0.003225 0.003223 0.003224 0.003226 0.003231 0.003237 0.003246 0.003257 0.003270 0.003285 0.003302 0.003321 0.003340 0.003361 0.003382 0.003403 0.003423 0.003444 0.003463 0.003481 0.003497 0.003512 0.003525 0.003535 0.003543 0.003548 0.003550 0.003549 0.003543 0.003533 0.003519 0.003500 0.003475 0.003445 0.003408 0.003366 0.003318 0.003264 0.003204 0.003138 0.003066 0.002989 0.002906 0.002818 0.002726 0.002629 0.002528 0.002423 0.002317 0.002211 0.002109 0.002016 0.001941 0.001895 0.001895 0.001961 0.002118 0.002395 0.002820 0.003414 0.004194 0.005161 0.006297 0.007571 0.008934 0.010338 0.011745
0.007822 0.007655 0.007159 0.006425 0.005556 0.004656 0.003804 0.003058 0.002448 0.001981 0.001649 0.001433 0.001310 0.001257 0.001254 0.001283 0.001332 0.001392 0.001458 0.001525 0.001590 0.001653 0.001713 0.001770 0.001822 0.001871 0.001916 0.001957 0.001995 0.002029 0.002060 0.002088 0.002113 0.002135 0.002154 0.002171 0.002186 0.002199 0.002210 0.002219 0.002226 0.002231 0.002234 0.002235 0.002234 0.002232 0.002227 0.002221 0.002214 0.002205 0.002197 0.002188 0.002180 0.002173 0.002166 0.002160 0.002154 0.002149 0.002145 0.002141 0.002137 0.002135 0.002133 0.002133 0.002134 0.002135 0.002139 0.002143 0.002150 0.002157 0.002166 0.002176 0.002187 0.002199 0.002211 0.002224 0.002237 0.002250 0.002263 0.002274 0.002286 0.002296 0.002305 0.002313 0.002319 0.002323 0.002326 0.002327 0.002325 0.002321 0.002315 0.002305 0.002292 0.002276 0.002256 0.002232 0.002205 0.002173 0.002138 0.002099 0.002056 0.002009 0.001959 0.001905 0.001848 0.001788 0.001725 0.001660 0.001593 0.001526 0.001461 0.001403 0.001357 0.001332 0.001344 0.001409 0.001551 0.001800 0.002187 0.002745 0.003501 0.004475 0.005671 0.007075 0.008652 0.010353 0.012115 0.013869
0.009009 0.008774 0.008149 0.007252 0.006208 0.005133 0.004119 0.003226 0.002489 0.001916 0.001495 0.001206 0.001023 0.000919 0.000872 0.000864 0.000879 0.000908 0.000945 0.000985 0.001025 0.001065 0.001103 0.001138 0.001172 0.001203 0.001231 0.001257 0.001281 0.001303 0.001323 0.001340 0.001356 0.001369 0.001382 0.001392 0.001401 0.001409 0.001416 0.001421 0.001425 0.001428 0.001430 0.001431 0.001430 0.001429 0.001426 0.001423 0.001418 0.001414 0.001408 0.001403 0.001398 0.001393 0.001389 0.001384 0.001381 0.001377 0.001374 0.001371 0.001369 0.001367 0.001366 0.001365 0.001365 0.001366 0.001367 0.001370 0.001373 0.001377 0.001383 0.001388 0.001395 0.001402 0.001409 0.001417 0.001425 0.001433 0.001440 0.001447 0.001454 0.001460 0.001466 0.001470 0.001474 0.001476 0.001478 0.001478 0.001477 0.001474 0.001469 0.001463 0.001455 0.001444 0.001432 0.001417 0.001399 0.001380 0.001357 0.001333 0.001306 0.001276 0.001244 0.001210 0.001174 0.001137 0.001097 0.001056 0.001015 0.000976 0.000940 0.000912 0.000900 0.000914 0.000968 0.001085 0.001289 0.001616 0.002099 0.002778 0.003685 0.004843 0.006260 0.007924 0.009800 0.011834 0.013952 0.016073
0.010087 0.009860 0.009141 0.008100 0.006893 0.005652 0.004482 0.003452 0.002596 0.001924 0.001424 0.001072 0.000839 0.000695 0.000615 0.000579 0.000570 0.000577 0.000594 0.000616 0.000639 0.000663 0.000686 0.000708 0.000728 0.000747 0.000765 0.000781 0.000796 0.000809 0.000821 0.000832 0.000841 0.000850 0.000857 0.000863 0.000869 0.000874 0.000877 0.000880 0.000883 0.000885 0.000886 0.000886 0.000886 0.000885 0.000883 0.000881 0.000879 0.000876 0.000873 0.000869 0.000866 0.000863 0.000860 0.000858 0.000855 0.000853 0.000851 0.000849 0.000848 0.000847 0.000846 0.000845 0.000845 0.000845 0.000846 0.000847 0.000849 0.000851 0.000854 0.000857 0.000861 0.000865 0.000870 0.000874 0.000879 0.000883 0.000888 0.000892 0.000896 0.000900 0.000903 0.000905 0.000907 0.000909 0.000909 0.000909 0.000908 0.000907 0.000904 0.000900 0.000894 0.000888 0.000880 0.000871 0.000860 0.000848 0.000834 0.000819 0.000803 0.000785 0.000765 0.000745 0.000723 0.000700 0.000676 0.000652 0.000628 0.000607 0.000591 0.000585 0.000597 0.000638 0.000726 0.000883 0.001140 0.001534 0.002105 0.002896 0.003945 0.005282 0.006917 0.008839 0.011015 0.013385 0.015871 0.018384
0.011284 0.010989 0.010164 0.008981 0.007613 0.006210 0.004888 0.003723 0.002754 0.001991 0.001418 0.001010 0.000734 0.000557 0.000451 0.000394 0.000367 0.000360 0.000364 0.000373 0.000386 0.000399 0.000412 0.000425 0.000437 0.000449 0.000459 0.000469 0.000477 0.000485 0.000493 0.000499 0.000505 0.000510 0.000514 0.000518 0.000521 0.000524 0.000526 0.000527 0.000529 0.000530 0.000530 0.000530 0.000530 0.000530 0.000529 0.000528 0.000526 0.000525 0.000523 0.000521 0.000519 0.000517 0.000515 0.000514 0.000512 0.000511 0.000510 0.000509 0.000508 0.000507 0.000506 0.000506 0.000505 0.000505 0.000506 0.000506 0.000507 0.000509 0.000510 0.000512 0.000514 0.000517 0.000519 0.000522 0.000524 0.000527 0.000530 0.000532 0.000534 0.000536 0.000538 0.000540 0.000541 0.000541 0.000542 0.000542 0.000541 0.000540 0.000538 0.000535 0.000532 0.000528 0.000524 0.000518 0.000512 0.000505 0.000497 0.000488 0.000478 0.000467 0.000456 0.000443 0.000431 0.000417 0.000403 0.000390 0.000378 0.000369 0.000366 0.000375 0.000404 0.000466 0.000580 0.000771 0.001074 0.001528 0.002180 0.003078 0.004267 0.005779 0.007631 0.009814 0.012295 0.015013 0.017889 0.020838
0.012398 0.012158 0.011242 0.009908 0.008372 0.006803 0.005329 0.004031 0.002952 0.002100 0.001459 0.000999 0.000685 0.000480 0.000353 0.000280 0.000241 0.000224 0.000219 0.000220 0.000226 0.000232 0.000240 0.000247 0.000254 0.000260 0.000266 0.000272 0.000277 0.000281 0.000286 0.000289 0.000293 0.000295 0.000298 0.000300 0.000302 0.000303 0.000304 0.000305 0.000306 0.000307 0.000307 0.000307 0.000307 0.000307 0.000306 0.000305 0.000305 0.000304 0.000303 0.000301 0.000300 0.000299 0.000298 0.000297 0.000296 0.000296 0.000295 0.000294 0.000294 0.000293 0.000293 0.000292 0.000292 0.000292 0.000292 0.000293 0.000293 0.000294 0.000295 0.000296 0.000297 0.000298 0.000300 0.000301 0.000303 0.000304 0.000306 0.000307 0.000308 0.000309 0.000310 0.000311 0.000312 0.000312 0.000312 0.000312 0.000312 0.000311 0.000310 0.000308 0.000306 0.000304 0.000301 0.000298 0.000295 0.000290 0.000286 0.000281 0.000275 0.000269 0.000262 0.000255 0.000248 0.000241 0.000233 0.000226 0.000221 0.000220 0.000226 0.000245 0.000287 0.000365 0.000500 0.000721 0.001065 0.001576 0.002306 0.003309 0.004635 0.006324 0.008395 0.010845 0.013639 0.016719 0.020003 0.023397
0.013906 0.013496 0.012408 0.010894 0.009175 0.007432 0.005801 0.004369 0.003180 0.002240 0.001533 0.001024 0.000674 0.000444 0.000300 0.000215 0.000167 0.000142 0.000131 0.000128 0.000128 0.000131 0.000135 0.000138 0.000142 0.000146 0.000149 0.000152 0.000155 0.000158 0.000160 0.000162 0.000164 0.000165 0.000167 0.000168 0.000169 0.000170 0.000170 0.000171 0.000171 0.000171 0.000172 0.000172 0.000172 0.000171 0.000171 0.000171 0.000170 0.000170 0.000169 0.000168 0.000168 0.000167 0.000167 0.000166 0.000166 0.000165 0.000165 0.000165 0.000164 0.000164 0.000164 0.000163 0.000163 0.000163 0.000163 0.000164 0.000164 0.000164 0.000165 0.000165 0.000166 0.000167 0.000167 0.000168 0.000169 0.000170 0.000171 0.000171 0.000172 0.000173 0.000173 0.000174 0.000174 0.000174 0.000174 0.000174 0.000174 0.000173 0.000173 0.000172 0.000171 0.000169 0.000168 0.000166 0.000164 0.000162 0.000159 0.000156 0.000153 0.000150 0.000146 0.000142 0.000138 0.000134 0.000131 0.000128 0.000128 0.000131 0.000143 0.000170 0.000221 0.000312 0.000466 0.000714 0.001095 0.001661 0.002468 0.003575 0.005040 0.006907 0.009203 0.011926 0.015046 0.018504 0.022219 0.026094
0.015646 0.014966 0.013657 0.011937 0.010020 0.008095 0.006301 0.004731 0.003430 0.002403 0.001630 0.001074 0.000690 0.000437 0.000277 0.000180 0.000125 0.000095 0.000080 0.000074 0.000072 0.000072 0.000073 0.000075 0.000077 0.000079 0.000081 0.000082 0.000084 0.000085 0.000087 0.000088 0.000089 0.000089 0.000090 0.000091 0.000091 0.000092 0.000092 0.000092 0.000092 0.000093 0.000093 0.000093 0.000093 0.000092 0.000092 0.000092 0.000092 0.000092 0.000091 0.000091 0.000091 0.000090 0.000090 0.000090 0.000089 0.000089 0.000089 0.000089 0.000089 0.000088 0.000088 0.000088 0.000088 0.000088 0.000088 0.000088 0.000088 0.000089 0.000089 0.000089 0.000090 0.000090 0.000090 0.000091 0.000091 0.000092 0.000092 0.000092 0.000093 0.000093 0.000093 0.000094 0.000094 0.000094 0.000094 0.000094 0.000094 0.000093 0.000093 0.000092 0.000092 0.000091 0.000090 0.000089 0.000088 0.000087 0.000086 0.000084 0.000082 0.000081 0.000079 0.000077 0.000075 0.000073 0.000071 0.000071 0.000073 0.000081 0.000097 0.000128 0.000187 0.000290 0.000460 0.000733 0.001153 0.001773 0.002656 0.003869 0.005475 0.007525 0.010049 0.013053 0.016508 0.020359 0.024536 0.028971
0.017326 0.016482 0.014967 0.013031 0.010906 0.008788 0.006826 0.005114 0.003698 0.002583 0.001743 0.001139 0.000722 0.000446 0.000272 0.000166 0.000104 0.000070 0.000052 0.000043 0.000040 0.000039 0.000039 0.000039 0.000040 0.000041 0.000042 0.000043 0.000044 0.000045 0.000045 0.000046 0.000046 0.000047 0.000047 0.000047 0.000048 0.000048 0.000048 0.000048 0.000048 0.000048 0.000048 0.000048 0.000048 0.000048 0.000048 0.000048 0.000048 0.000048 0.000048 0.000047 0.000047 0.000047 0.000047 0.000047 0.000047 0.000047 0.000046 0.000046 0.000046 0.000046 0.000046 0.000046 0.000046 0.000046 0.000046 0.000046 0.000046 0.000046 0.000046 0.000046 0.000047 0.000047 0.000047 0.000047 0.000047 0.000048 0.000048 0.000048 0.000048 0.000048 0.000049 0.000049 0.000049 0.000049 0.000049 0.000049 0.000049 0.000049 0.000048 0.000048 0.000048 0.000047 0.000047 0.000046 0.000046 0.000045 0.000044 0.000044 0.000043 0.000042 0.000041 0.000040 0.000039 0.000038 0.000038 0.000040 0.000044 0.000053 0.000072 0.000108 0.000173 0.000286 0.000473 0.000771 0.001227 0.001902 0.002863 0.004184 0.005934 0.008171 0.010931 0.014222 0.018018 0.022266 0.026893 0.031830
0.019131 0.018058 0.016324 0.014168 0.011828 0.009512 0.007374 0.005515 0.003981 0.002775 0.001868 0.001215 0.000765 0.000467 0.000278 0.000162 0.000095 0.000058 0.000037 0.000027 0.000023 0.000021 0.000020 0.000020 0.000020 0.000021 0.000021 0.000022 0.000022 0.000022 0.000023 0.000023 0.000023 0.000024 0.000024 0.000024 0.000024 0.000024 0.000024 0.000024 0.000024 0.000024 0.000024 0.000024 0.000024 0.000024 0.000024 0.000024 0.000024 0.000024 0.000024 0.000024 0.000024 0.000024 0.000024 0.000024 0.000023 0.000023 0.000023 0.000023 0.000023 0.000023 0.000023 0.000023 0.000023 0.000023 0.000023 0.000023 0.000023 0.000023 0.000023 0.000023 0.000023 0.000024 0.000024 0.000024 0.000024 0.000024 0.000024 0.000024 0.000024 0.000024 0.000024 0.000025 0.000025 0.000025 0.000025 0.000025 0.000024 0.000024 0.000024 0.000024 0.000024 0.000024 0.000024 0.000023 0.000023 0.000023 0.000022 0.000022 0.000021 0.000021 0.000021 0.000020 0.000020 0.000020 0.000020 0.000023 0.000028 0.000039 0.000060 0.000100 0.000171 0.000294 0.000497 0.000819 0.001314 0.002044 0.003086 0.004517 0.006415 0.008845 0.011847 0.015432 0.019575 0.024220 0.029289 0.034699
0.020828 0.019638 0.017717 0.015345 0.012786 0.010263 0.007944 0.005933 0.004277 0.002977 0.002000 0.001298 0.000814 0.000494 0.000290 0.000166 0.000093 0.000053 0.000031 0.000019 0.000014 0.000011 0.000010 0.000010 0.000010 0.000010 0.000010 0.000011 0.000011 0.000011 0.000011 0.000011 0.000011 0.000011 0.000012 0.000012 0.000012 0.000012 0.000012 0.000012 0.000012 0.000012 0.000012 0.000012 0.000012 0.000012 0.000012 0.000012 0.000012 0.000012 0.000012 0.000012 0.000012 0.000011 0.000011 0.000011 0.000011 0.000011 0.000011 0.000011 0.000011 0.000011 0.000011 0.000011 0.000011 0.000011 0.000011 0.000011 0.000011 0.000011 0.000011 0.000011 0.000011 0.000011 0.000011 0.000012 0.000012 0.000012 0.000012 0.000012 0.000012 0.000012 0.000012 0.000012 0.000012 0.000012 0.000012 0.000012 0.000012 0.000012 0.000012 0.000012 0.000012 0.000012 0.000011 0.000011 0.000011 0.000011 0.000011 0.000011 0.000010 0.000010 0.000010 0.000010 0.000010 0.000010 0.000011 0.000014 0.000020 0.000032 0.000055 0.000099 0.000176 0.000309 0.000528 0.000875 0.001409 0.002197 0.003321 0.004866 0.006917 0.009545 0.012796 0.016683 0.021181 0.026229 0.031736 0.037597
0.022524 0.021252 0.019155 0.016564 0.013779 0.011044 0.008537 0.006368 0.004585 0.003188 0.002140 0.001387 0.000868 0.000525 0.000307 0.000174 0.000096 0.000052 0.000028 0.000016 0.000010 0.000007 0.000005 0.000005 0.000005 0.000005 0.000005 0.000005 0.000005 0.000005 0.000005 0.000005 0.000005 0.000005 0.000005 0.000005 0.000005 0.000005 0.000006 0.000006 0.000006 0.000006 0.000006 0.000006 0.000006 0.000005 0.000005 0.000005 0.000005 0.000005 0.000005 0.000005 0.000005 0.000005 0.000005 0.000005 0.000005 0.000005 0.000005 0.000005 0.000005 0.000005 0.000005 0.000005 0.000005 0.000005 0.000005 0.000005 0.000005 0.000005 0.000005 0.000005 0.000005 0.000005 0.000005 0.000005 0.000005 0.000005 0.000005 0.000006 0.000006 0.000006 0.000006 0.000006 0.000006 0.000006 0.000006 0.000006 0.000006 0.000006 0.000006 0.000005 0.000005 0.000005 0.000005 0.000005 0.000005 0.000005 0.000005 0.000005 0.000005 0.000005 0.000005 0.000005 0.000005 0.000005 0.000007 0.000010 0.000016 0.000030 0.000055 0.000102 0.000185 0.000328 0.000563 0.000937 0.001510 0.002358 0.003567 0.005230 0.007440 0.010273 0.013780 0.017979 0.022843 0.028306 0.034275 0.040639
0.024384 0.022956 0.020655 0.017833 0.014812 0.011855 0.009152 0.006820 0.004906 0.003408 0.002286 0.001480 0.000925 0.000559 0.000326 0.000183 0.000100 0.000053 0.000028 0.000014 0.000008 0.000005 0.000003 0.000003 0.000002 0.000002 0.000002 0.000002 0.000002 0.000002 0.000002 0.000002 0.000002 0.000002 0.000002 0.000002 0.000002 0.000002 0.000002 0.000002 0.000002 0.000002 0.000002 0.000002 0.000002 0.000002 0.000002 0.000002 0.000002 0.000002 0.000002 0.000002 0.000002 0.000002 0.000002 0.000002 0.000002 0.000002 0.000002 0.000002 0.000002 0.000002 0.000002 0.000002 0.000002 0.000002 0.000002 0.000002 0.000002 0.000002 0.000002 0.000002 0.000002 0.000002 0.000002 0.000002 0.000002 0.000002 0.000002 0.000002 0.000002 0.000003 0.000003 0.000003 0.000003 0.000003 0.000003 0.000003 0.000003 0.000002 0.000002 0.000002 0.000002 0.000002 0.000002 0.000002 0.000002 0.000002 0.000002 0.000002 0.000002 0.000002 0.000002 0.000002 0.000002 0.000003 0.000005 0.000008 0.000015 0.000030 0.000057 0.000107 0.000197 0.000349 0.000602 0.001002 0.001617 0.002526 0.003824 0.005610 0.007984 0.011030 0.014804 0.019325 0.024568 0.030464 0.036912 0.043797
0.026335 0.024752 0.022229 0.019159 0.015889 0.012699 0.009793 0.007289 0.005239 0.003637 0.002438 0.001578 0.000986 0.000594 0.000346 0.000194 0.000105 0.000055 0.000028 0.000014 0.000007 0.000004 0.000002 0.000001 0.000001 0.000001 0.000001 0.000001 0.000001 0.000001 0.000001 0.000001 0.000001 0.000001 0.000001 0.000001 0.000001 0.000001 0.000001 0.000001 0.000001 0.000001 0.000001 0.000001 0.000001 0.000001 0.000001 0.000001 0.000001 0.000001 0.000001 0.000001 0.000001 0.000001 0.000001 0.000001 0.000001 0.000001 0.000001 0.000001 0.000001 0.000001 0.000001 0.000001 0.000001 0.000001 0.000001 0.000001 0.000001 0.000001 0.000001 0.000001 0.000001 0.000001 0.000001 0.000001 0.000001 0.000001 0.000001 0.000001 0.000001 0.000001 0.000001 0.000001 0.000001 0.000001 0.000001 0.000001 0.000001 0.000001 0.000001 0.000001 0.000001 0.000001 0.000001 0.000001 0.000001 0.000001 0.000001 0.000001 0.000001 0.000001 0.000001 0.000001 0.000001 0.000002 0.000004 0.000008 0.000015 0.000031 0.000060 0.000114 0.000209 0.000373 0.000643 0.001072 0.001730 0.002703 0.004093 0.006007 0.008551 0.011818 0.015869 0.020726 0.026365 0.032713 0.039663 0.047092
0.028506 0.026664 0.023880 0.020543 0.017011 0.013579 0.010459 0.007778 0.005587 0.003875 0.002596 0.001680 0.001049 0.000632 0.000368 0.000206 0.000112 0.000058 0.000030 0.000014 0.000007 0.000003 0.000002 0.000001 0.000001 0.000000 0.000000 0.000000 0.000000 0.000000 0.000000 0.000000 0.000000 0.000000 0.000000 0.000000 0.000000 0.000000 0.000000 0.000000 0.000000 0.000000 0.000000 0.000000 0.000000 0.000000 0.000000 0.000000 0.000000 0.000000 0.000000 0.000000 0.000000 0.000000 0.000000 0.000000 0.000000 0.000000 0.000000 0.000000 0.000000 0.000000 0.000000 0.000000 0.000000 0.000000 0.000000 0.000000 0.000000 0.000000 0.000000 0.000000 0.000000 0.000000 0.000000 0.000000 0.000000 0.000000 0.000000 0.000000 0.000000 0.000000 0.000000 0.000000 0.000000 0.000000 0.000000 0.000000 0.000000 0.000000 0.000000 0.000000 0.000000 0.000000 0.000000 0.000000 0.000000 0.000000 0.000000 0.000000 0.000000 0.000000 0.000000 0.000001 0.000001 0.000002 0.000004 0.000008 0.000016 0.000032 0.000063 0.000121 0.000223 0.000398 0.000686 0.001144 0.001847 0.002888 0.004373 0.006420 0.009143 0.012640 0.016980 0.022188 0.028239 0.035061 0.042542 0.050554
0.030762 0.028652 0.025598 0.021984 0.018180 0.014496 0.011154 0.008288 0.005948 0.004124 0.002761 0.001786 0.001115 0.000672 0.000390 0.000219 0.000118 0.000062 0.000031 0.000015 0.000007 0.000003 0.000002 0.000001 0.000000 0.000000 0.000000 0.000000 0.000000 0.000000 0.000000 0.000000 0.000000 0.000000 0.000000 0.000000 0.000000 0.000000 0.000000 0.000000 0.000000 0.000000 0.000000 0.000000 0.000000 0.000000 0.000000 0.000000 0.000000 0.000000 0.000000 0.000000 0.000000 0.000000 0.000000 0.000000 0.000000 0.000000 0.000000 0.000000 0.000000 0.000000 0.000000 0.000000 0.000000 0.000000 0.000000 0.000000 0.000000 0.000000 0.000000 0.000000 0.000000 0.000000 0.000000 0.000000 0.000000 0.000000 0.000000 0.000000 0.000000 0.000000 0.000000 0.000000 0.000000 0.000000 0.000000 0.000000 0.000000 0.000000 0.000000 0.000000 0.000000 0.000000 0.000000 0.000000 0.000000 0.000000 0.000000 0.000000 0.000000 0.000000 0.000000 0.000000 0.000001 0.000002 0.000004 0.000008 0.000017 0.000034 0.000068 0.000129 0.000238 0.000424 0.000732 0.001220 0.001970 0.003081 0.004666 0.006852 0.009760 0.013498 0.018139 0.023713 0.030196 0.037513 0.045552 0.054185