# vtk DataFile Version 2.0
test
ASCII
DATASET STRUCTURED_POINTS
DIMENSIONS 128 128 1
ORIGIN 0 0 0
SPACING 1 1 1
POINT_DATA 16384
SCALARS values float
LOOKUP_TABLE default
0.000283 0.000406 -0.000306 0.000155 0.000458 0.001814 0.002523 0.003934 0.004363 0.005457 0.006640 0.008111 0.009431 0.010607 0.012350 0.013553 0.014789 0.016334 0.017397 0.018647 0.019760 0.020702 0.021921 0.022715 0.023578 0.024579 0.025261 0.026084 0.026966 0.027630 0.028355 0.029186 0.029800 0.030546 0.031298 0.031915 0.032514 0.033127 0.033522 0.033849 0.034153 0.034358 0.034422 0.034450 0.034405 0.034164 0.033711 0.033160 0.032583 0.031805 0.030848 0.030354 0.031240 0.032908 0.032816 0.031020 0.031183 0.032332 0.031720 0.032065 0.032433 0.032271 0.033082 0.033019 0.033608 0.033960 0.034494 0.034965 0.035460 0.035936 0.036559 0.037070 0.037714 0.038262 0.038930 0.039435 0.039999 0.040463 0.040987 0.041465 0.041831 0.042238 0.042585 0.042990 0.043290 0.043548 0.043839 0.044028 0.044211 0.044250 0.044209 0.044160 0.043918 0.043629 0.043209 0.042668 0.042133 0.041412 0.040646 0.039869 0.038933 0.038023 0.037018 0.035879 0.034790 0.033613 0.032375 0.031105 0.029661 0.028184 0.026712 0.025119 0.023452 0.021735 0.019897 0.018031 0.016142 0.014146 0.012090 0.009961 0.007730 0.005580 0.003703 0.002146 0.000956 0.000230 -0.000036 0.000053
-0.001609 -0.000158 0.000356 0.000902 0.001461 0.002319 0.003101 0.004039 0.004784 0.005714 0.006743 0.007890 0.009033 0.010168 0.011430 0.012568 0.013694 0.014864 0.015902 0.016938 0.017910 0.018814 0.019739 0.020535 0.021310 0.022084 0.022762 0.023445 0.024118 0.024719 0.025312 0.025908 0.026440 0.026983 0.027509 0.027981 0.028421 0.028827 0.029143 0.029399 0.029607 0.029747 0.029807 0.029806 0.029727 0.029530 0.029211 0.028807 0.028349 0.027829 0.027331 0.027118 0.027420 0.027932 0.027901 0.027383 0.027346 0.027618 0.027541 0.027662 0.027816 0.027891 0.028192 0.028340 0.028644 0.028929 0.029273 0.029616 0.029977 0.030348 0.030766 0.031174 0.031618 0.032049 0.032501 0.032909 0.033316 0.033690 0.034065 0.034413 0.034718 0.035016 0.035290 0.035562 0.035792 0.035993 0.036178 0.036315 0.036414 0.036439 0.036402 0.036313 0.036129 0.035877 0.035539 0.035121 0.034652 0.034092 0.033475 0.032812 0.032076 0.031306 0.030477 0.029583 0.028667 0.027702 0.026689 0.025627 0.024486 0.023300 0.022080 0.020797 0.019457 0.018066 0.016610 0.015114 0.013583 0.011997 0.010370 0.008710 0.007041 0.005447 0.004022 0.002812 0.001838 0.001098 0.000513 -0.000096
-0.000567 0.000264 0.000903 0.001462 0.002015 0.002635 0.003293 0.003996 0.004711 0.005493 0.006351 0.007271 0.008221 0.009190 0.010179 0.011147 0.012097 0.013030 0.013920 0.014775 0.015589 0.016362 0.017102 0.017790 0.018441 0.019061 0.019639 0.020190 0.020714 0.021203 0.021666 0.022109 0.022522 0.022917 0.023290 0.023633 0.023945 0.024222 0.024454 0.024642 0.024787 0.024885 0.024931 0.024923 0.024853 0.024708 0.024487 0.024205 0.023883 0.023548 0.023265 0.023135 0.023195 0.023313 0.023290 0.023146 0.023088 0.023117 0.023128 0.023171 0.023239 0.023324 0.023454 0.023592 0.023766 0.023963 0.024185 0.024422 0.024673 0.024940 0.025226 0.025523 0.025832 0.026146 0.026460 0.026764 0.027058 0.027339 0.027609 0.027862 0.028094 0.028312 0.028516 0.028704 0.028871 0.029016 0.029138 0.029229 0.029284 0.029293 0.029254 0.029166 0.029020 0.028814 0.028549 0.028224 0.027846 0.027410 0.026923 0.026390 0.025810 0.025188 0.024524 0.023819 0.023080 0.022305 0.021491 0.020637 0.019737 0.018797 0.017822 0.016806 0.015748 0.014651 0.013515 0.012346 0.011150 0.009929 0.008690 0.007451 0.006240 0.005100 0.004077 0.003192 0.002441 0.001778 0.001098 0.000228
-0.000344 0.000717 0.001421 0.001929 0.002364 0.002802 0.003273 0.003789 0.004352 0.004972 0.005650 0.006377 0.007135 0.007912 0.008697 0.009474 0.010237 0.010980 0.011696 0.012382 0.013035 0.013656 0.014244 0.014797 0.015316 0.015804 0.016261 0.016690 0.017091 0.017465 0.017815 0.018141 0.018444 0.018728 0.018990 0.019230 0.019446 0.019637 0.019799 0.019932 0.020035 0.020105 0.020139 0.020135 0.020086 0.019989 0.019843 0.019657 0.019447 0.019236 0.019062 0.018963 0.018941 0.018946 0.018919 0.018861 0.018817 0.018801 0.018799 0.018811 0.018841 0.018887 0.018955 0.019039 0.019143 0.019266 0.019406 0.019560 0.019727 0.019908 0.020101 0.020304 0.020517 0.020734 0.020952 0.021167 0.021376 0.021577 0.021769 0.021950 0.022118 0.022275 0.022419 0.022551 0.022667 0.022766 0.022846 0.022904 0.022933 0.022932 0.022895 0.022820 0.022704 0.022545 0.022341 0.022093 0.021802 0.021468 0.021094 0.020682 0.020233 0.019749 0.019232 0.018683 0.018105 0.017498 0.016862 0.016194 0.015495 0.014766 0.014009 0.013222 0.012407 0.011565 0.010698 0.009813 0.008914 0.008011 0.007114 0.006241 0.005415 0.004661 0.003999 0.003431 0.002931 0.002434 0.001836 0.000993
0.000452 0.001405 0.002013 0.002392 0.002657 0.002897 0.003164 0.003483 0.003861 0.004302 0.004800 0.005344 0.005920 0.006516 0.007119 0.007719 0.008309 0.008883 0.009436 0.009966 0.010471 0.010949 0.011401 0.011825 0.012222 0.012593 0.012939 0.013260 0.013558 0.013834 0.014088 0.014322 0.014538 0.014736 0.014918 0.015082 0.015230 0.015359 0.015471 0.015563 0.015635 0.015686 0.015713 0.015713 0.015685 0.015625 0.015535 0.015419 0.015288 0.015158 0.015048 0.014972 0.014932 0.014908 0.014879 0.014844 0.014812 0.014789 0.014777 0.014774 0.014782 0.014801 0.014833 0.014878 0.014936 0.015008 0.015091 0.015186 0.015292 0.015408 0.015534 0.015669 0.015810 0.015955 0.016103 0.016250 0.016394 0.016534 0.016667 0.016794 0.016911 0.017021 0.017120 0.017210 0.017289 0.017354 0.017406 0.017440 0.017455 0.017448 0.017416 0.017356 0.017268 0.017148 0.016996 0.016812 0.016595 0.016346 0.016066 0.015757 0.015419 0.015054 0.014663 0.014247 0.013808 0.013346 0.012862 0.012355 0.011825 0.011274 0.010701 0.010109 0.009497 0.008869 0.008229 0.007583 0.006938 0.006306 0.005701 0.005141 0.004644 0.004227 0.003897 0.003641 0.003423 0.003170 0.002775 0.002099
0.001203 0.002230 0.002721 0.002915 0.002973 0.002997 0.003048 0.003160 0.003345 0.003603 0.003925 0.004299 0.004709 0.005142 0.005586 0.006031 0.006470 0.006897 0.007309 0.007703 0.008079 0.008434 0.008769 0.009082 0.009375 0.009648 0.009900 0.010133 0.010348 0.010544 0.010724 0.010889 0.011039 0.011175 0.011298 0.011409 0.011508 0.011595 0.011670 0.011732 0.011782 0.011819 0.011840 0.011844 0.011830 0.011796 0.011743 0.011674 0.011596 0.011517 0.011447 0.011393 0.011355 0.011327 0.011302 0.011276 0.011251 0.011231 0.011215 0.011206 0.011203 0.011207 0.011219 0.011240 0.011269 0.011307 0.011355 0.011410 0.011474 0.011546 0.011625 0.011711 0.011802 0.011897 0.011994 0.012092 0.012188 0.012283 0.012373 0.012459 0.012539 0.012613 0.012680 0.012740 0.012792 0.012834 0.012866 0.012886 0.012892 0.012883 0.012857 0.012812 0.012746 0.012658 0.012548 0.012415 0.012258 0.012078 0.011875 0.011650 0.011403 0.011136 0.010849 0.010543 0.010220 0.009879 0.009522 0.009148 0.008758 0.008352 0.007932 0.007499 0.007055 0.006603 0.006148 0.005697 0.005262 0.004856 0.004496 0.004200 0.003986 0.003868 0.003845 0.003899 0.003988 0.004039 0.003948 0.003583
0.002903 0.003383 0.003568 0.003524 0.003351 0.003147 0.002979 0.002885 0.002880 0.002961 0.003119 0.003339 0.003603 0.003896 0.004205 0.004519 0.004832 0.005138 0.005434 0.005718 0.005987 0.006242 0.006482 0.006706 0.006915 0.007108 0.007287 0.007451 0.007602 0.007739 0.007863 0.007976 0.008078 0.008170 0.008252 0.008326 0.008392 0.008449 0.008499 0.008541 0.008575 0.008600 0.008616 0.008622 0.008616 0.008597 0.008568 0.008528 0.008482 0.008434 0.008390 0.008353 0.008323 0.008299 0.008278 0.008259 0.008240 0.008223 0.008209 0.008198 0.008191 0.008188 0.008190 0.008197 0.008210 0.008229 0.008255 0.008286 0.008323 0.008366 0.008414 0.008467 0.008524 0.008585 0.008647 0.008710 0.008773 0.008835 0.008895 0.008952 0.009005 0.009054 0.009098 0.009137 0.009170 0.009196 0.009216 0.009227 0.009228 0.009219 0.009199 0.009166 0.009119 0.009056 0.008979 0.008885 0.008775 0.008648 0.008505 0.008346 0.008172 0.007982 0.007778 0.007561 0.007330 0.007087 0.006831 0.006564 0.006286 0.005997 0.005699 0.005392 0.005081 0.004768 0.004461 0.004168 0.003902 0.003680 0.003522 0.003448 0.003479 0.003625 0.003888 0.004247 0.004660 0.005056 0.005347 0.005429
0.004135 0.004530 0.004502 0.004214 0.003802 0.003369 0.002986 0.002694 0.002508 0.002428 0.002439 0.002525 0.002665 0.002842 0.003042 0.003252 0.003465 0.003675 0.003880 0.004076 0.004263 0.004440 0.004606 0.004761 0.004905 0.005039 0.005162 0.005274 0.005377 0.005470 0.005555 0.005631 0.005699 0.005760 0.005815 0.005863 0.005906 0.005943 0.005975 0.006003 0.006025 0.006042 0.006053 0.006058 0.006056 0.006046 0.006030 0.006007 0.005981 0.005952 0.005925 0.005899 0.005878 0.005859 0.005843 0.005829 0.005815 0.005802 0.005790 0.005780 0.005773 0.005768 0.005765 0.005767 0.005771 0.005780 0.005793 0.005809 0.005830 0.005855 0.005884 0.005916 0.005951 0.005989 0.006028 0.006068 0.006108 0.006148 0.006186 0.006223 0.006257 0.006288 0.006317 0.006341 0.006362 0.006378 0.006390 0.006395 0.006395 0.006387 0.006372 0.006348 0.006315 0.006273 0.006219 0.006155 0.006080 0.005993 0.005896 0.005787 0.005667 0.005537 0.005397 0.005247 0.005088 0.004920 0.004744 0.004560 0.004367 0.004169 0.003964 0.003756 0.003546 0.003341 0.003148 0.002978 0.002846 0.002772 0.002779 0.002892 0.003134 0.003518 0.004047 0.004702 0.005442 0.006206 0.006914 0.007481
0.005715 0.005798 0.005503 0.004969 0.004322 0.003667 0.003078 0.002600 0.002250 0.002025 0.001910 0.001883 0.001923 0.002007 0.002121 0.002250 0.002387 0.002525 0.002661 0.002792 0.002917 0.003035 0.003147 0.003251 0.003347 0.003437 0.003519 0.003594 0.003663 0.003725 0.003781 0.003831 0.003876 0.003916 0.003951 0.003983 0.004010 0.004034 0.004054 0.004071 0.004086 0.004096 0.004103 0.004107 0.004106 0.004101 0.004092 0.004079 0.004064 0.004047 0.004029 0.004013 0.003998 0.003985 0.003973 0.003962 0.003952 0.003943 0.003934 0.003926 0.003920 0.003915 0.003912 0.003911 0.003911 0.003915 0.003921 0.003930 0.003941 0.003956 0.003973 0.003992 0.004013 0.004036 0.004060 0.004084 0.004109 0.004134 0.004158 0.004181 0.004203 0.004223 0.004240 0.004255 0.004268 0.004278 0.004284 0.004287 0.004286 0.004280 0.004269 0.004252 0.004230 0.004201 0.004166 0.004123 0.004073 0.004016 0.003951 0.003879 0.003800 0.003714 0.003621 0.003521 0.003415 0.003303 0.003185 0.003062 0.002935 0.002803 0.002668 0.002532 0.002399 0.002275 0.002168 0.002092 0.002064 0.002108 0.002250 0.002520 0.002946 0.003545 0.004322 0.005261 0.006325 0.007457 0.008590 0.009665
0.007295 0.007084 0.006537 0.005768 0.004897 0.004032 0.003251 0.002602 0.002104 0.001753 0.001530 0.001411 0.001370 0.001384 0.001432 0.001502 0.001583 0.001669 0.001755 0.001839 0.001919 0.001996 0.002068 0.002135 0.002198 0.002256 0.002309 0.002358 0.002403 0.002443 0.002479 0.002512 0.002540 0.002566 0.002589 0.002608 0.002625 0.002640 0.002653 0.002663 0.002672 0.002678 0.002683 0.002685 0.002684 0.002681 0.002676 0.002669 0.002660 0.002650 0.002639 0.002629 0.002619 0.002610 0.002601 0.002594 0.002587 0.002580 0.002574 0.002569 0.002564 0.002560 0.002557 0.002556 0.002555 0.002556 0.002559 0.002564 0.002570 0.002578 0.002588 0.002599 0.002611 0.002625 0.002640 0.002655 0.002670 0.002685 0.002700 0.002714 0.002727 0.002739 0.002750 0.002759 0.002766 0.002772 0.002775 0.002777 0.002775 0.002771 0.002763 0.002752 0.002738 0.002719 0.002696 0.002668 0.002636 0.002600 0.002558 0.002512 0.002461 0.002406 0.002346 0.002282 0.002214 0.002142 0.002066 0.001987 0.001905 0.001821 0.001736 0.001652 0.001575 0.001509 0.001466 0.001461 0.001513 0.001651 0.001905 0.002310 0.002898 0.003692 0.004701 0.005912 0.007290 0.008777 0.010310 0.011833
0.008724 0.008320 0.007570 0.006592 0.005515 0.004453 0.003494 0.002689 0.002058 0.001595 0.001282 0.001088 0.000984 0.000943 0.000945 0.000972 0.001014 0.001062 0.001114 0.001165 0.001215 0.001263 0.001308 0.001350 0.001389 0.001426 0.001459 0.001490 0.001518 0.001543 0.001566 0.001586 0.001604 0.001620 0.001634 0.001646 0.001657 0.001666 0.001673 0.001679 0.001684 0.001688 0.001690 0.001691 0.001691 0.001689 0.001686 0.001682 0.001677 0.001671 0.001664 0.001658 0.001651 0.001646 0.001640 0.001635 0.001631 0.001626 0.001622 0.001619 0.001616 0.001613 0.001611 0.001609 0.001608 0.001608 0.001610 0.001612 0.001615 0.001620 0.001625 0.001632 0.001639 0.001647 0.001656 0.001665 0.001674 0.001683 0.001691 0.001700 0.001708 0.001715 0.001721 0.001727 0.001731 0.001734 0.001736 0.001736 0.001735 0.001732 0.001727 0.001720 0.001710 0.001699 0.001684 0.001667 0.001647 0.001624 0.001599 0.001570 0.001539 0.001504 0.001467 0.001428 0.001385 0.001341 0.001294 0.001245 0.001194 0.001143 0.001092 0.001045 0.001006 0.000982 0.000986 0.001033 0.001148 0.001362 0.001709 0.002231 0.002965 0.003940 0.005169 0.006641 0.008321 0.010148 0.012043 0.013921
0.009957 0.009483 0.008588 0.007431 0.006165 0.004921 0.003795 0.002845 0.002092 0.001532 0.001140 0.000884 0.000731 0.000650 0.000617 0.000614 0.000629 0.000653 0.000681 0.000711 0.000740 0.000769 0.000796 0.000821 0.000845 0.000867 0.000887 0.000906 0.000923 0.000938 0.000952 0.000964 0.000975 0.000985 0.000993 0.001001 0.001007 0.001012 0.001016 0.001020 0.001023 0.001025 0.001026 0.001026 0.001026 0.001025 0.001023 0.001021 0.001018 0.001014 0.001011 0.001007 0.001003 0.000999 0.000996 0.000992 0.000990 0.000987 0.000984 0.000982 0.000980 0.000978 0.000977 0.000976 0.000975 0.000975 0.000975 0.000977 0.000978 0.000981 0.000984 0.000988 0.000992 0.000996 0.001001 0.001007 0.001012 0.001017 0.001022 0.001027 0.001031 0.001036 0.001039 0.001042 0.001045 0.001046 0.001047 0.001047 0.001046 0.001044 0.001041 0.001037 0.001031 0.001024 0.001015 0.001005 0.000993 0.000979 0.000964 0.000947 0.000928 0.000907 0.000885 0.000861 0.000836 0.000809 0.000781 0.000752 0.000722 0.000693 0.000665 0.000643 0.000630 0.000635 0.000672 0.000760 0.000924 0.001200 0.001629 0.002255 0.003124 0.004270 0.005710 0.007436 0.009412 0.011572 0.013827 0.016078
0.011136 0.010622 0.009608 0.008288 0.006845 0.005426 0.004141 0.003054 0.002189 0.001540 0.001079 0.000771 0.000578 0.000466 0.000408 0.000384 0.000381 0.000389 0.000402 0.000418 0.000434 0.000451 0.000466 0.000481 0.000495 0.000508 0.000520 0.000530 0.000540 0.000549 0.000557 0.000565 0.000571 0.000577 0.000581 0.000586 0.000589 0.000592 0.000594 0.000596 0.000598 0.000599 0.000599 0.000600 0.000599 0.000599 0.000598 0.000596 0.000595 0.000593 0.000591 0.000588 0.000586 0.000584 0.000582 0.000580 0.000578 0.000577 0.000575 0.000574 0.000573 0.000571 0.000570 0.000570 0.000569 0.000569 0.000569 0.000570 0.000571 0.000572 0.000574 0.000576 0.000578 0.000581 0.000584 0.000587 0.000589 0.000592 0.000595 0.000598 0.000601 0.000603 0.000605 0.000607 0.000608 0.000609 0.000609 0.000609 0.000608 0.000607 0.000605 0.000602 0.000599 0.000595 0.000590 0.000584 0.000577 0.000569 0.000560 0.000550 0.000539 0.000527 0.000515 0.000501 0.000486 0.000471 0.000455 0.000438 0.000422 0.000406 0.000393 0.000387 0.000392 0.000418 0.000479 0.000597 0.000802 0.001131 0.001632 0.002356 0.003353 0.004663 0.006310 0.008288 0.010560 0.013056 0.015681 0.018321
0.012373 0.011791 0.010654 0.009174 0.007554 0.005964 0.004523 0.003303 0.002331 0.001599 0.001076 0.000722 0.000495 0.000359 0.000282 0.000244 0.000229 0.000226 0.000230 0.000237 0.000245 0.000254 0.000263 0.000271 0.000279 0.000286 0.000293 0.000299 0.000304 0.000309 0.000314 0.000318 0.000322 0.000325 0.000327 0.000330 0.000332 0.000333 0.000335 0.000336 0.000336 0.000337 0.000337 0.000337 0.000337 0.000337 0.000336 0.000335 0.000334 0.000333 0.000332 0.000331 0.000329 0.000328 0.000327 0.000326 0.000325 0.000324 0.000323 0.000323 0.000322 0.000321 0.000321 0.000320 0.000320 0.000320 0.000320 0.000320 0.000321 0.000321 0.000322 0.000323 0.000325 0.000326 0.000328 0.000329 0.000331 0.000332 0.000334 0.000335 0.000337 0.000338 0.000339 0.000340 0.000341 0.000341 0.000341 0.000341 0.000341 0.000340 0.000339 0.000337 0.000335 0.000333 0.000330 0.000327 0.000323 0.000318 0.000313 0.000308 0.000302 0.000295 0.000288 0.000280 0.000272 0.000264 0.000255 0.000246 0.000238 0.000231 0.000227 0.000231 0.000248 0.000288 0.000368 0.000511 0.000750 0.001127 0.001695 0.002511 0.003632 0.005106 0.006960 0.009192 0.011767 0.014610 0.017623 0.020688
0.013585 0.013014 0.011756 0.010103 0.008299 0.006532 0.004934 0.003583 0.002507 0.001694 0.001112 0.000716 0.000460 0.000303 0.000212 0.000163 0.000139 0.000130 0.000128 0.000130 0.000134 0.000138 0.000143 0.000147 0.000151 0.000155 0.000159 0.000162 0.000165 0.000168 0.000170 0.000172 0.000174 0.000176 0.000177 0.000179 0.000180 0.000180 0.000181 0.000182 0.000182 0.000182 0.000182 0.000182 0.000182 0.000182 0.000182 0.000181 0.000181 0.000180 0.000180 0.000179 0.000178 0.000177 0.000177 0.000176 0.000176 0.000175 0.000175 0.000174 0.000174 0.000174 0.000173 0.000173 0.000173 0.000173 0.000173 0.000173 0.000173 0.000174 0.000174 0.000175 0.000175 0.000176 0.000177 0.000178 0.000179 0.000180 0.000180 0.000181 0.000182 0.000183 0.000183 0.000184 0.000184 0.000184 0.000184 0.000184 0.000184 0.000183 0.000183 0.000182 0.000181 0.000179 0.000178 0.000176 0.000174 0.000171 0.000169 0.000166 0.000163 0.000159 0.000155 0.000151 0.000147 0.000142 0.000138 0.000133 0.000130 0.000128 0.000130 0.000141 0.000166 0.000217 0.000311 0.000475 0.000744 0.001166 0.001799 0.002706 0.003951 0.005588 0.007652 0.010145 0.013032 0.016239 0.019661 0.023173
0.015165 0.014400 0.012944 0.011086 0.009081 0.007130 0.005371 0.003887 0.002705 0.001813 0.001174 0.000738 0.000454 0.000279 0.000177 0.000120 0.000090 0.000076 0.000071 0.000070 0.000070 0.000072 0.000074 0.000077 0.000079 0.000081 0.000083 0.000084 0.000086 0.000087 0.000089 0.000090 0.000091 0.000092 0.000092 0.000093 0.000094 0.000094 0.000094 0.000095 0.000095 0.000095 0.000095 0.000095 0.000095 0.000095 0.000094 0.000094 0.000094 0.000094 0.000093 0.000093 0.000093 0.000092 0.000092 0.000092 0.000091 0.000091 0.000091 0.000091 0.000091 0.000090 0.000090 0.000090 0.000090 0.000090 0.000090 0.000090 0.000090 0.000090 0.000090 0.000091 0.000091 0.000092 0.000092 0.000092 0.000093 0.000093 0.000094 0.000094 0.000095 0.000095 0.000095 0.000095 0.000096 0.000096 0.000096 0.000096 0.000095 0.000095 0.000095 0.000094 0.000094 0.000093 0.000092 0.000091 0.000090 0.000089 0.000088 0.000086 0.000084 0.000082 0.000081 0.000078 0.000076 0.000074 0.000072 0.000070 0.000069 0.000071 0.000076 0.000091 0.000122 0.000181 0.000288 0.000471 0.000769 0.001234 0.001931 0.002928 0.004298 0.006102 0.008381 0.011142 0.014354 0.017944 0.021806 0.025808
0.016985 0.015924 0.014216 0.012125 0.009903 0.007756 0.005830 0.004209 0.002921 0.001949 0.001253 0.000777 0.000468 0.000276 0.000162 0.000098 0.000064 0.000047 0.000040 0.000037 0.000036 0.000037 0.000037 0.000038 0.000040 0.000041 0.000041 0.000042 0.000043 0.000044 0.000044 0.000045 0.000045 0.000046 0.000046 0.000047 0.000047 0.000047 0.000047 0.000047 0.000047 0.000047 0.000047 0.000047 0.000047 0.000047 0.000047 0.000047 0.000047 0.000047 0.000047 0.000046 0.000046 0.000046 0.000046 0.000046 0.000046 0.000046 0.000045 0.000045 0.000045 0.000045 0.000045 0.000045 0.000045 0.000045 0.000045 0.000045 0.000045 0.000045 0.000045 0.000045 0.000046 0.000046 0.000046 0.000046 0.000046 0.000047 0.000047 0.000047 0.000047 0.000047 0.000048 0.000048 0.000048 0.000048 0.000048 0.000048 0.000048 0.000047 0.000047 0.000047 0.000047 0.000046 0.000046 0.000045 0.000045 0.000044 0.000044 0.000043 0.000042 0.000041 0.000040 0.000039 0.000038 0.000037 0.000036 0.000036 0.000036 0.000040 0.000048 0.000066 0.000101 0.000167 0.000285 0.000486 0.000812 0.001321 0.002081 0.003170 0.004668 0.006643 0.009143 0.012181 0.015729 0.019717 0.024050 0.028626
0.018781 0.017503 0.015549 0.013213 0.010761 0.008409 0.006309 0.004548 0.003149 0.002097 0.001342 0.000827 0.000492 0.000283 0.000160 0.000090 0.000052 0.000033 0.000024 0.000020 0.000018 0.000018 0.000018 0.000019 0.000019 0.000020 0.000020 0.000020 0.000021 0.000021 0.000021 0.000022 0.000022 0.000022 0.000022 0.000022 0.000023 0.000023 0.000023 0.000023 0.000023 0.000023 0.000023 0.000023 0.000023 0.000023 0.000023 0.000023 0.000023 0.000022 0.000022 0.000022 0.000022 0.000022 0.000022 0.000022 0.000022 0.000022 0.000022 0.000022 0.000022 0.000022 0.000022 0.000022 0.000022 0.000022 0.000022 0.000022 0.000022 0.000022 0.000022 0.000022 0.000022 0.000022 0.000022 0.000022 0.000022 0.000022 0.000022 0.000023 0.000023 0.000023 0.000023 0.000023 0.000023 0.000023 0.000023 0.000023 0.000023 0.000023 0.000023 0.000023 0.000022 0.000022 0.000022 0.000022 0.000022 0.000021 0.000021 0.000021 0.000020 0.000020 0.000019 0.000019 0.000018 0.000018 0.000018 0.000018 0.000020 0.000024 0.000034 0.000054 0.000093 0.000166 0.000295 0.000513 0.000867 0.001420 0.002245 0.003429 0.005058 0.007209 0.009936 0.013258 0.017149 0.021541 0.026334 0.031422
0.020667 0.019137 0.016931 0.014343 0.011653 0.009088 0.006808 0.004900 0.003389 0.002253 0.001440 0.000884 0.000523 0.000298 0.000164 0.000089 0.000048 0.000027 0.000016 0.000011 0.000009 0.000009 0.000009 0.000009 0.000009 0.000009 0.000009 0.000009 0.000010 0.000010 0.000010 0.000010 0.000010 0.000010 0.000010 0.000010 0.000010 0.000010 0.000010 0.000010 0.000010 0.000010 0.000010 0.000010 0.000010 0.000010 0.000010 0.000010 0.000010 0.000010 0.000010 0.000010 0.000010 0.000010 0.000010 0.000010 0.000010 0.000010 0.000010 0.000010 0.000010 0.000010 0.000010 0.000010 0.000010 0.000010 0.000010 0.000010 0.000010 0.000010 0.000010 0.000010 0.000010 0.000010 0.000010 0.000010 0.000010 0.000010 0.000010 0.000010 0.000010 0.000010 0.000011 0.000011 0.000011 0.000011 0.000011 0.000011 0.000011 0.000010 0.000010 0.000010 0.000010 0.000010 0.000010 0.000010 0.000010 0.000010 0.000010 0.000009 0.000009 0.000009 0.000009 0.000009 0.000008 0.000008 0.000009 0.000009 0.000012 0.000017 0.000027 0.000050 0.000092 0.000171 0.000311 0.000547 0.000930 0.001527 0.002420 0.003700 0.005465 0.007797 0.010759 0.014372 0.018613 0.023408 0.028651 0.034218
0.022483 0.020786 0.018350 0.015511 0.012577 0.009791 0.007324 0.005265 0.003639 0.002417 0.001542 0.000946 0.000558 0.000316 0.000173 0.000091 0.000047 0.000024 0.000013 0.000008 0.000005 0.000004 0.000004 0.000004 0.000004 0.000004 0.000004 0.000004 0.000004 0.000004 0.000004 0.000004 0.000004 0.000005 0.000005 0.000005 0.000005 0.000005 0.000005 0.000005 0.000005 0.000005 0.000005 0.000005 0.000005 0.000005 0.000005 0.000005 0.000005 0.000005 0.000005 0.000005 0.000005 0.000004 0.000004 0.000004 0.000004 0.000004 0.000004 0.000004 0.000004 0.000004 0.000004 0.000004 0.000004 0.000004 0.000004 0.000004 0.000004 0.000004 0.000004 0.000004 0.000004 0.000004 0.000004 0.000005 0.000005 0.000005 0.000005 0.000005 0.000005 0.000005 0.000005 0.000005 0.000005 0.000005 0.000005 0.000005 0.000005 0.000005 0.000005 0.000005 0.000005 0.000005 0.000004 0.000004 0.000004 0.000004 0.000004 0.000004 0.000004 0.000004 0.000004 0.000004 0.000004 0.000004 0.000004 0.000005 0.000008 0.000013 0.000025 0.000049 0.000096 0.000181 0.000331 0.000585 0.000998 0.001641 0.002603 0.003984 0.005888 0.008408 0.011611 0.015523 0.020121 0.025326 0.031016 0.037042
0.024303 0.022473 0.019815 0.016721 0.013534 0.010520 0.007859 0.005644 0.003897 0.002587 0.001650 0.001011 0.000595 0.000337 0.000183 0.000096 0.000049 0.000024 0.000012 0.000006 0.000003 0.000002 0.000002 0.000002 0.000002 0.000002 0.000002 0.000002 0.000002 0.000002 0.000002 0.000002 0.000002 0.000002 0.000002 0.000002 0.000002 0.000002 0.000002 0.000002 0.000002 0.000002 0.000002 0.000002 0.000002 0.000002 0.000002 0.000002 0.000002 0.000002 0.000002 0.000002 0.000002 0.000002 0.000002 0.000002 0.000002 0.000002 0.000002 0.000002 0.000002 0.000002 0.000002 0.000002 0.000002 0.000002 0.000002 0.000002 0.000002 0.000002 0.000002 0.000002 0.000002 0.000002 0.000002 0.000002 0.000002 0.000002 0.000002 0.000002 0.000002 0.000002 0.000002 0.000002 0.000002 0.000002 0.000002 0.000002 0.000002 0.000002 0.000002 0.000002 0.000002 0.000002 0.000002 0.000002 0.000002 0.000002 0.000002 0.000002 0.000002 0.000002 0.000002 0.000002 0.000002 0.000002 0.000002 0.000004 0.000006 0.000012 0.000025 0.000051 0.000101 0.000192 0.000353 0.000626 0.001070 0.001761 0.002795 0.004280 0.006329 0.009042 0.012494 0.016716 0.021681 0.027309 0.033469 0.040005
0.026256 0.024245 0.021343 0.017979 0.014528 0.011277 0.008414 0.006037 0.004166 0.002763 0.001762 0.001079 0.000635 0.000359 0.000195 0.000102 0.000051 0.000025 0.000012 0.000005 0.000003 0.000001 0.000001 0.000001 0.000001 0.000001 0.000001 0.000001 0.000001 0.000001 0.000001 0.000001 0.000001 0.000001 0.000001 0.000001 0.000001 0.000001 0.000001 0.000001 0.000001 0.000001 0.000001 0.000001 0.000001 0.000001 0.000001 0.000001 0.000001 0.000001 0.000001 0.000001 0.000001 0.000001 0.000001 0.000001 0.000001 0.000001 0.000001 0.000001 0.000001 0.000001 0.000001 0.000001 0.000001 0.000001 0.000001 0.000001 0.000001 0.000001 0.000001 0.000001 0.000001 0.000001 0.000001 0.000001 0.000001 0.000001 0.000001 0.000001 0.000001 0.000001 0.000001 0.000001 0.000001 0.000001 0.000001 0.000001 0.000001 0.000001 0.000001 0.000001 0.000001 0.000001 0.000001 0.000001 0.000001 0.000001 0.000001 0.000001 0.000001 0.000001 0.000001 0.000001 0.000001 0.000001 0.000002 0.000003 0.000006 0.000012 0.000026 0.000054 0.000107 0.000205 0.000378 0.000670 0.001145 0.001886 0.002995 0.004588 0.006787 0.009701 0.013412 0.017954 0.023302 0.029369 0.036018 0.043085
0.028352 0.026121 0.022945 0.019292 0.015563 0.012063 0.008991 0.006445 0.004444 0.002946 0.001878 0.001150 0.000677 0.000382 0.000207 0.000108 0.000054 0.000026 0.000012 0.000005 0.000002 0.000001 0.000001 0.000000 0.000000 0.000000 0.000000 0.000000 0.000000 0.000000 0.000000 0.000000 0.000000 0.000000 0.000000 0.000000 0.000000 0.000000 0.000000 0.000000 0.000000 0.000000 0.000000 0.000000 0.000000 0.000000 0.000000 0.000000 0.000000 0.000000 0.000000 0.000000 0.000000 0.000000 0.000000 0.000000 0.000000 0.000000 0.000000 0.000000 0.000000 0.000000 0.000000 0.000000 0.000000 0.000000 0.000000 0.000000 0.000000 0.000000 0.000000 0.000000 0.000000 0.000000 0.000000 0.000000 0.000000 0.000000 0.000000 0.000000 0.000000 0.000000 0.000000 0.000000 0.000000 0.000000 0.000000 0.000000 0.000000 0.000000 0.000000 0.000000 0.000000 0.000000 0.000000 0.000000 0.000000 0.000000 0.000000 0.000000 0.000000 0.000000 0.000000 0.000000 0.000000 0.000001 0.000001 0.000003 0.000006 0.000013 0.000028 0.000057 0.000114 0.000219 0.000404 0.000716 0.001224 0.002017 0.003203 0.004909 0.007264 0.010387 0.014367 0.019242 0.024988 0.031515 0.038677 0.046296
0.030640 0.028108 0.024625 0.020663 0.016642 0.012882 0.009591 0.006870 0.004734 0.003137 0.001999 0.001224 0.000720 0.000407 0.000220 0.000115 0.000057 0.000028 0.000013 0.000006 0.000002 0.000001 0.000000 0.000000 0.000000 0.000000 0.000000 0.000000 0.000000 0.000000 0.000000 0.000000 0.000000 0.000000 0.000000 0.000000 0.000000 0.000000 0.000000 0.000000 0.000000 0.000000 0.000000 0.000000 0.000000 0.000000 0.000000 0.000000 0.000000 0.000000 0.000000 0.000000 0.000000 0.000000 0.000000 0.000000 0.000000 0.000000 0.000000 0.000000 0.000000 0.000000 0.000000 0.000000 0.000000 0.000000 0.000000 0.000000 0.000000 0.000000 0.000000 0.000000 0.000000 0.000000 0.000000 0.000000 0.000000 0.000000 0.000000 0.000000 0.000000 0.000000 0.000000 0.000000 0.000000 0.000000 0.000000 0.000000 0.000000 0.000000 0.000000 0.000000 0.000000 0.000000 0.000000 0.000000 0.000000 0.000000 0.000000 0.000000 0.000000 0.000000 0.000000 0.000000 0.000000 0.000000 0.000001 0.000003 0.000006 0.000014 0.000030 0.000061 0.000122 0.000234 0.000431 0.000765 0.001307 0.002153 0.003421 0.005243 0.007761 0.011103 0.015363 0.020585 0.026748 0.033756 0.041459 0.049672
0.032995 0.030167 0.026370 0.022090 0.017767 0.013737 0.010217 0.007313 0.005036 0.003336 0.002125 0.001300 0.000765 0.000432 0.000234 0.000122 0.000061 0.000029 0.000013 0.000006 0.000003 0.000001 0.000000 0.000000 0.000000 0.000000 0.000000 0.000000 0.000000 0.000000 0.000000 0.000000 0.000000 0.000000 0.000000 0.000000 0.000000 0.000000 0.000000 0.000000 0.000000 0.000000 0.000000 0.000000 0.000000 0.000000 0.000000 0.000000 0.000000 0.000000 0.000000 0.000000 0.000000 0.000000 0.000000 0.000000 0.000000 0.000000 0.000000 0.000000 0.000000 0.000000 0.000000 0.000000 0.000000 0.000000 0.000000 0.000000 0.000000 0.000000 0.000000 0.000000 0.000000 0.000000 0.000000 0.000000 0.000000 0.000000 0.000000 0.000000 0.000000 0.000000 0.000000 0.000000 0.000000 0.000000 0.000000 0.000000 0.000000 0.000000 0.000000 0.000000 0.000000 0.000000 0.000000 0.000000 0.000000 0.000000 0.000000 0.000000 0.000000 0.000000 0.000000 0.000000 0.000000 0.000000 0.000001 0.000003 0.000006 0.000015 0.000031 0.000065 0.000130 0.000249 0.000459 0.000815 0.001393 0.002296 0.003648 0.005593 0.008281 0.011849 0.016402 0.021988 0.028584 0.036097 0.044368 0.053212