# vtk DataFile Version 2.0
test
ASCII
DATASET STRUCTURED_POINTS
DIMENSIONS 128 128 1
ORIGIN 0 0 0
SPACING 1 1 1
POINT_DATA 16384
SCALARS values float
LOOKUP_TABLE default
0.000690 -0.002010 -0.000268 0.000034 0.001887 0.003310 0.005743 0.007508 0.009705 0.011059 0.012748 0.014674 0.016511 0.018369 0.019888 0.021807 0.023344 0.024586 0.026311 0.027474 0.028716 0.029943 0.030779 0.031963 0.032824 0.033452 0.034303 0.034882 0.035316 0.035953 0.036312 0.036587 0.037040 0.037235 0.037475 0.037787 0.037974 0.038149 0.038382 0.038515 0.038689 0.038854 0.039008 0.039236 0.039387 0.039434 0.039475 0.039296 0.038798 0.038361 0.037789 0.036752 0.036151 0.037210 0.038907 0.038560 0.036919 0.037282 0.037851 0.036961 0.037316 0.037208 0.036864 0.037138 0.036813 0.037136 0.036902 0.037156 0.037218 0.037418 0.037438 0.037758 0.037940 0.038347 0.038568 0.038968 0.039231 0.039616 0.039879 0.040137 0.040420 0.040622 0.040842 0.040929 0.041078 0.041213 0.041294 0.041348 0.041368 0.041389 0.041386 0.041245 0.041112 0.040895 0.040579 0.040230 0.039685 0.039136 0.038488 0.037694 0.036932 0.035979 0.034991 0.034011 0.032861 0.031719 0.030562 0.029314 0.028097 0.026781 0.025384 0.024036 0.022661 0.021227 0.019804 0.018293 0.016716 0.015170 0.013570 0.011844 0.009972 0.007901 0.005753 0.003788 0.002147 0.000877 0.000153 0.000113
0.000215 -0.000519 -0.000010 0.000641 0.001918 0.003258 0.004825 0.006221 0.007646 0.008858 0.010135 0.011482 0.012807 0.014103 0.015299 0.016546 0.017671 0.018695 0.019787 0.020724 0.021631 0.022489 0.023226 0.023997 0.024655 0.025218 0.025787 0.026259 0.026664 0.027078 0.027401 0.027675 0.027960 0.028170 0.028369 0.028568 0.028726 0.028865 0.029002 0.029108 0.029212 0.029309 0.029402 0.029509 0.029587 0.029621 0.029618 0.029513 0.029280 0.029005 0.028646 0.028185 0.027944 0.028234 0.028680 0.028538 0.028034 0.028024 0.028129 0.027917 0.027940 0.027860 0.027729 0.027738 0.027644 0.027697 0.027652 0.027726 0.027778 0.027868 0.027933 0.028081 0.028222 0.028423 0.028595 0.028809 0.029000 0.029215 0.029399 0.029574 0.029746 0.029891 0.030025 0.030116 0.030211 0.030294 0.030351 0.030387 0.030400 0.030398 0.030368 0.030281 0.030165 0.029999 0.029775 0.029501 0.029144 0.028742 0.028278 0.027742 0.027172 0.026523 0.025830 0.025105 0.024312 0.023492 0.022643 0.021752 0.020841 0.019882 0.018883 0.017878 0.016850 0.015792 0.014714 0.013595 0.012441 0.011274 0.010072 0.008809 0.007478 0.006087 0.004706 0.003448 0.002389 0.001539 0.000854 0.000159
0.000139 0.000213 0.000288 0.000757 0.001635 0.002650 0.003665 0.004612 0.005520 0.006391 0.007270 0.008165 0.009046 0.009896 0.010708 0.011501 0.012253 0.012967 0.013665 0.014320 0.014940 0.015522 0.016061 0.016573 0.017041 0.017465 0.017860 0.018213 0.018530 0.018821 0.019075 0.019298 0.019500 0.019672 0.019824 0.019960 0.020076 0.020176 0.020262 0.020334 0.020395 0.020449 0.020497 0.020543 0.020576 0.020593 0.020586 0.020538 0.020442 0.020308 0.020131 0.019931 0.019802 0.019804 0.019828 0.019722 0.019554 0.019500 0.019505 0.019469 0.019434 0.019375 0.019306 0.019262 0.019225 0.019214 0.019211 0.019233 0.019268 0.019315 0.019370 0.019446 0.019534 0.019637 0.019743 0.019858 0.019975 0.020095 0.020211 0.020321 0.020427 0.020524 0.020610 0.020682 0.020746 0.020801 0.020841 0.020866 0.020875 0.020866 0.020836 0.020778 0.020693 0.020577 0.020425 0.020237 0.020007 0.019741 0.019435 0.019090 0.018709 0.018288 0.017833 0.017347 0.016826 0.016277 0.015701 0.015098 0.014469 0.013813 0.013131 0.012431 0.011711 0.010969 0.010206 0.009419 0.008611 0.007788 0.006947 0.006087 0.005217 0.004361 0.003567 0.002892 0.002368 0.001963 0.001551 0.000879
0.001989 0.001386 0.000967 0.001007 0.001426 0.001996 0.002571 0.003119 0.003655 0.004197 0.004749 0.005306 0.005852 0.006378 0.006883 0.007370 0.007838 0.008289 0.008725 0.009141 0.009536 0.009910 0.010260 0.010589 0.010896 0.011179 0.011442 0.011681 0.011899 0.012098 0.012276 0.012434 0.012573 0.012694 0.012799 0.012889 0.012965 0.013030 0.013083 0.013127 0.013161 0.013189 0.013210 0.013226 0.013237 0.013240 0.013235 0.013217 0.013181 0.013128 0.013054 0.012965 0.012884 0.012821 0.012757 0.012671 0.012594 0.012563 0.012561 0.012553 0.012527 0.012486 0.012440 0.012404 0.012378 0.012365 0.012364 0.012374 0.012395 0.012423 0.012459 0.012502 0.012552 0.012608 0.012667 0.012729 0.012794 0.012862 0.012929 0.012995 0.013058 0.013117 0.013172 0.013220 0.013262 0.013296 0.013322 0.013337 0.013340 0.013332 0.013309 0.013270 0.013213 0.013138 0.013041 0.012923 0.012782 0.012618 0.012431 0.012220 0.011986 0.011729 0.011449 0.011148 0.010826 0.010484 0.010122 0.009740 0.009341 0.008922 0.008487 0.008035 0.007568 0.007085 0.006586 0.006073 0.005546 0.005011 0.004471 0.003937 0.003426 0.002971 0.002615 0.002402 0.002347 0.002400 0.002420 0.002174
0.003248 0.002656 0.001970 0.001548 0.001446 0.001547 0.001741 0.001977 0.002244 0.002539 0.002853 0.003175 0.003492 0.003799 0.004095 0.004381 0.004657 0.004924 0.005182 0.005429 0.005664 0.005886 0.006095 0.006292 0.006476 0.006648 0.006807 0.006953 0.007087 0.007210 0.007320 0.007419 0.007506 0.007581 0.007645 0.007699 0.007744 0.007782 0.007812 0.007837 0.007855 0.007867 0.007874 0.007878 0.007878 0.007876 0.007871 0.007863 0.007849 0.007827 0.007796 0.007756 0.007709 0.007658 0.007604 0.007551 0.007513 0.007497 0.007495 0.007491 0.007475 0.007450 0.007422 0.007398 0.007381 0.007371 0.007369 0.007375 0.007386 0.007403 0.007425 0.007450 0.007478 0.007509 0.007541 0.007576 0.007611 0.007648 0.007686 0.007723 0.007759 0.007793 0.007824 0.007852 0.007876 0.007895 0.007908 0.007915 0.007915 0.007907 0.007891 0.007866 0.007831 0.007785 0.007728 0.007659 0.007577 0.007483 0.007375 0.007254 0.007119 0.006971 0.006810 0.006636 0.006450 0.006251 0.006040 0.005816 0.005581 0.005335 0.005078 0.004810 0.004531 0.004243 0.003945 0.003638 0.003324 0.003007 0.002695 0.002401 0.002151 0.001984 0.001952 0.002103 0.002454 0.002955 0.003457 0.003732
0.004571 0.004028 0.003124 0.002261 0.001658 0.001335 0.001216 0.001222 0.001305 0.001434 0.001590 0.001759 0.001930 0.002097 0.002260 0.002418 0.002571 0.002719 0.002862 0.002998 0.003128 0.003250 0.003365 0.003473 0.003574 0.003669 0.003756 0.003837 0.003911 0.003979 0.004041 0.004096 0.004144 0.004185 0.004220 0.004249 0.004273 0.004293 0.004309 0.004321 0.004329 0.004334 0.004335 0.004334 0.004332 0.004328 0.004324 0.004319 0.004311 0.004301 0.004285 0.004266 0.004241 0.004213 0.004185 0.004160 0.004143 0.004136 0.004134 0.004131 0.004122 0.004108 0.004092 0.004078 0.004067 0.004061 0.004058 0.004061 0.004067 0.004076 0.004088 0.004103 0.004119 0.004136 0.004154 0.004173 0.004193 0.004213 0.004233 0.004253 0.004272 0.004290 0.004306 0.004321 0.004332 0.004341 0.004347 0.004349 0.004347 0.004340 0.004330 0.004315 0.004294 0.004269 0.004237 0.004199 0.004155 0.004104 0.004045 0.003980 0.003907 0.003828 0.003741 0.003647 0.003547 0.003439 0.003325 0.003204 0.003077 0.002943 0.002803 0.002657 0.002505 0.002348 0.002185 0.002017 0.001847 0.001679 0.001520 0.001390 0.001319 0.001356 0.001564 0.002008 0.002718 0.003645 0.004627 0.005397
0.005913 0.005421 0.004283 0.003008 0.001968 0.001297 0.000937 0.000781 0.000741 0.000767 0.000828 0.000905 0.000988 0.001072 0.001154 0.001235 0.001313 0.001389 0.001462 0.001532 0.001598 0.001660 0.001718 0.001772 0.001823 0.001870 0.001914 0.001955 0.001992 0.002026 0.002057 0.002085 0.002109 0.002130 0.002147 0.002161 0.002173 0.002182 0.002189 0.002195 0.002198 0.002200 0.002199 0.002197 0.002194 0.002191 0.002188 0.002185 0.002181 0.002174 0.002166 0.002156 0.002144 0.002131 0.002119 0.002110 0.002104 0.002101 0.002100 0.002098 0.002094 0.002087 0.002078 0.002070 0.002064 0.002060 0.002058 0.002058 0.002061 0.002066 0.002072 0.002080 0.002089 0.002099 0.002109 0.002119 0.002129 0.002140 0.002150 0.002160 0.002170 0.002179 0.002187 0.002194 0.002199 0.002202 0.002204 0.002204 0.002201 0.002197 0.002191 0.002182 0.002171 0.002158 0.002142 0.002122 0.002100 0.002074 0.002045 0.002012 0.001976 0.001936 0.001892 0.001846 0.001795 0.001742 0.001685 0.001625 0.001561 0.001494 0.001424 0.001351 0.001275 0.001196 0.001114 0.001031 0.000948 0.000869 0.000805 0.000778 0.000824 0.001005 0.001398 0.002088 0.003121 0.004461 0.005940 0.007269
0.007953 0.006943 0.005401 0.003722 0.002314 0.001365 0.000824 0.000552 0.000434 0.000399 0.000406 0.000434 0.000469 0.000506 0.000544 0.000581 0.000618 0.000653 0.000687 0.000720 0.000750 0.000779 0.000806 0.000831 0.000855 0.000876 0.000896 0.000915 0.000932 0.000948 0.000963 0.000975 0.000986 0.000996 0.001003 0.001009 0.001014 0.001018 0.001022 0.001024 0.001025 0.001025 0.001024 0.001023 0.001021 0.001019 0.001017 0.001015 0.001013 0.001010 0.001005 0.001000 0.000994 0.000988 0.000984 0.000981 0.000980 0.000980 0.000980 0.000979 0.000977 0.000973 0.000969 0.000965 0.000961 0.000958 0.000957 0.000957 0.000958 0.000960 0.000964 0.000968 0.000972 0.000977 0.000982 0.000988 0.000993 0.000998 0.001003 0.001008 0.001013 0.001017 0.001021 0.001024 0.001026 0.001027 0.001027 0.001026 0.001025 0.001022 0.001018 0.001014 0.001009 0.001002 0.000995 0.000986 0.000975 0.000963 0.000950 0.000934 0.000918 0.000899 0.000879 0.000857 0.000834 0.000810 0.000784 0.000756 0.000727 0.000696 0.000664 0.000630 0.000595 0.000559 0.000522 0.000484 0.000448 0.000419 0.000409 0.000443 0.000567 0.000851 0.001393 0.002296 0.003631 0.005376 0.007372 0.009323
0.009726 0.008390 0.006463 0.004401 0.002673 0.001496 0.000811 0.000454 0.000285 0.000214 0.000192 0.000194 0.000205 0.000220 0.000235 0.000251 0.000266 0.000281 0.000296 0.000310 0.000323 0.000335 0.000346 0.000357 0.000367 0.000376 0.000384 0.000392 0.000399 0.000406 0.000412 0.000418 0.000422 0.000426 0.000429 0.000432 0.000433 0.000435 0.000436 0.000437 0.000438 0.000437 0.000437 0.000436 0.000435 0.000434 0.000433 0.000432 0.000431 0.000429 0.000427 0.000424 0.000421 0.000419 0.000418 0.000417 0.000417 0.000418 0.000418 0.000418 0.000417 0.000415 0.000413 0.000411 0.000409 0.000408 0.000407 0.000406 0.000407 0.000408 0.000409 0.000411 0.000414 0.000416 0.000419 0.000421 0.000424 0.000426 0.000428 0.000431 0.000433 0.000435 0.000436 0.000438 0.000438 0.000439 0.000438 0.000438 0.000437 0.000435 0.000434 0.000432 0.000429 0.000426 0.000423 0.000419 0.000415 0.000410 0.000404 0.000397 0.000390 0.000382 0.000374 0.000365 0.000355 0.000344 0.000333 0.000322 0.000310 0.000297 0.000283 0.000269 0.000254 0.000239 0.000223 0.000208 0.000196 0.000193 0.000212 0.000283 0.000459 0.000823 0.001491 0.002590 0.004212 0.006357 0.008869 0.011435
0.011592 0.009848 0.007506 0.005070 0.003046 0.001666 0.000858 0.000432 0.000223 0.000130 0.000094 0.000083 0.000084 0.000088 0.000093 0.000099 0.000105 0.000111 0.000116 0.000121 0.000126 0.000131 0.000136 0.000140 0.000143 0.000147 0.000150 0.000153 0.000156 0.000159 0.000161 0.000163 0.000165 0.000166 0.000167 0.000168 0.000169 0.000170 0.000170 0.000170 0.000170 0.000170 0.000170 0.000169 0.000169 0.000169 0.000168 0.000168 0.000167 0.000167 0.000166 0.000164 0.000163 0.000162 0.000162 0.000162 0.000162 0.000162 0.000163 0.000163 0.000163 0.000162 0.000161 0.000160 0.000159 0.000158 0.000157 0.000157 0.000157 0.000158 0.000158 0.000159 0.000160 0.000161 0.000163 0.000164 0.000165 0.000166 0.000167 0.000168 0.000169 0.000170 0.000170 0.000171 0.000171 0.000171 0.000171 0.000170 0.000170 0.000169 0.000168 0.000168 0.000167 0.000165 0.000164 0.000163 0.000161 0.000159 0.000157 0.000154 0.000151 0.000148 0.000145 0.000141 0.000138 0.000134 0.000129 0.000125 0.000120 0.000115 0.000110 0.000105 0.000099 0.000093 0.000087 0.000083 0.000081 0.000091 0.000126 0.000221 0.000436 0.000868 0.001651 0.002935 0.004836 0.007374 0.010401 0.013601
0.013656 0.011352 0.008559 0.005749 0.003437 0.001862 0.000938 0.000449 0.000208 0.000099 0.000053 0.000037 0.000032 0.000032 0.000034 0.000036 0.000038 0.000040 0.000042 0.000043 0.000045 0.000047 0.000048 0.000050 0.000051 0.000052 0.000053 0.000054 0.000055 0.000056 0.000057 0.000058 0.000059 0.000059 0.000059 0.000060 0.000060 0.000060 0.000060 0.000060 0.000060 0.000060 0.000060 0.000060 0.000060 0.000060 0.000059 0.000059 0.000059 0.000059 0.000058 0.000058 0.000057 0.000057 0.000057 0.000057 0.000057 0.000057 0.000058 0.000058 0.000058 0.000057 0.000057 0.000056 0.000056 0.000056 0.000055 0.000055 0.000055 0.000055 0.000056 0.000056 0.000056 0.000057 0.000057 0.000058 0.000058 0.000059 0.000059 0.000060 0.000060 0.000060 0.000060 0.000061 0.000061 0.000061 0.000061 0.000060 0.000060 0.000060 0.000059 0.000059 0.000059 0.000058 0.000058 0.000057 0.000057 0.000056 0.000055 0.000054 0.000053 0.000052 0.000051 0.000050 0.000048 0.000047 0.000046 0.000044 0.000042 0.000041 0.000039 0.000037 0.000035 0.000033 0.000031 0.000031 0.000035 0.000050 0.000095 0.000208 0.000456 0.000951 0.001844 0.003309 0.005485 0.008406 0.011921 0.015687
0.015551 0.012811 0.009613 0.006443 0.003846 0.002076 0.001036 0.000486 0.000215 0.000091 0.000039 0.000019 0.000013 0.000011 0.000011 0.000012 0.000012 0.000013 0.000013 0.000014 0.000015 0.000015 0.000016 0.000016 0.000016 0.000017 0.000017 0.000017 0.000018 0.000018 0.000018 0.000019 0.000019 0.000019 0.000019 0.000019 0.000019 0.000019 0.000019 0.000019 0.000019 0.000019 0.000019 0.000019 0.000019 0.000019 0.000019 0.000019 0.000019 0.000019 0.000019 0.000018 0.000018 0.000018 0.000018 0.000018 0.000018 0.000018 0.000018 0.000019 0.000018 0.000018 0.000018 0.000018 0.000018 0.000018 0.000018 0.000017 0.000017 0.000018 0.000018 0.000018 0.000018 0.000018 0.000018 0.000018 0.000019 0.000019 0.000019 0.000019 0.000019 0.000019 0.000019 0.000020 0.000020 0.000019 0.000019 0.000019 0.000019 0.000019 0.000019 0.000019 0.000019 0.000019 0.000018 0.000018 0.000018 0.000018 0.000018 0.000017 0.000017 0.000017 0.000016 0.000016 0.000015 0.000015 0.000015 0.000014 0.000014 0.000013 0.000012 0.000012 0.000011 0.000011 0.000011 0.000012 0.000018 0.000037 0.000089 0.000216 0.000496 0.001052 0.002055 0.003701 0.006151 0.009447 0.013419 0.017674
0.017224 0.014200 0.010662 0.007152 0.004272 0.002305 0.001146 0.000532 0.000232 0.000094 0.000036 0.000014 0.000006 0.000004 0.000003 0.000003 0.000004 0.000004 0.000004 0.000004 0.000004 0.000004 0.000005 0.000005 0.000005 0.000005 0.000005 0.000005 0.000005 0.000005 0.000005 0.000005 0.000005 0.000005 0.000006 0.000006 0.000006 0.000006 0.000006 0.000006 0.000006 0.000006 0.000006 0.000006 0.000006 0.000005 0.000005 0.000005 0.000005 0.000005 0.000005 0.000005 0.000005 0.000005 0.000005 0.000005 0.000005 0.000005 0.000005 0.000005 0.000005 0.000005 0.000005 0.000005 0.000005 0.000005 0.000005 0.000005 0.000005 0.000005 0.000005 0.000005 0.000005 0.000005 0.000005 0.000005 0.000005 0.000005 0.000005 0.000006 0.000006 0.000006 0.000006 0.000006 0.000006 0.000006 0.000006 0.000006 0.000006 0.000006 0.000005 0.000005 0.000005 0.000005 0.000005 0.000005 0.000005 0.000005 0.000005 0.000005 0.000005 0.000005 0.000005 0.000005 0.000004 0.000004 0.000004 0.000004 0.000004 0.000004 0.000004 0.000003 0.000003 0.000003 0.000004 0.000006 0.000013 0.000034 0.000093 0.000234 0.000545 0.001162 0.002277 0.004108 0.006835 0.010505 0.014937 0.019712
0.018827 0.015562 0.011717 0.007879 0.004715 0.002544 0.001262 0.000584 0.000252 0.000101 0.000037 0.000013 0.000004 0.000002 0.000001 0.000001 0.000001 0.000001 0.000001 0.000001 0.000001 0.000001 0.000001 0.000001 0.000001 0.000001 0.000001 0.000001 0.000001 0.000001 0.000001 0.000001 0.000001 0.000001 0.000001 0.000001 0.000001 0.000001 0.000001 0.000001 0.000001 0.000001 0.000001 0.000001 0.000001 0.000001 0.000001 0.000001 0.000001 0.000001 0.000001 0.000001 0.000001 0.000001 0.000001 0.000001 0.000001 0.000001 0.000001 0.000001 0.000001 0.000001 0.000001 0.000001 0.000001 0.000001 0.000001 0.000001 0.000001 0.000001 0.000001 0.000001 0.000001 0.000001 0.000001 0.000001 0.000001 0.000001 0.000001 0.000001 0.000001 0.000001 0.000001 0.000001 0.000001 0.000001 0.000001 0.000001 0.000001 0.000001 0.000001 0.000001 0.000001 0.000001 0.000001 0.000001 0.000001 0.000001 0.000001 0.000001 0.000001 0.000001 0.000001 0.000001 0.000001 0.000001 0.000001 0.000001 0.000001 0.000001 0.000001 0.000001 0.000001 0.000001 0.000002 0.000004 0.000012 0.000036 0.000100 0.000256 0.000598 0.001278 0.002508 0.004528 0.007538 0.011587 0.016476 0.021756
0.020471 0.016945 0.012792 0.008626 0.005173 0.002793 0.001385 0.000639 0.000274 0.000109 0.000040 0.000013 0.000004 0.000001 0.000000 0.000000 0.000000 0.000000 0.000000 0.000000 0.000000 0.000000 0.000000 0.000000 0.000000 0.000000 0.000000 0.000000 0.000000 0.000000 0.000000 0.000000 0.000000 0.000000 0.000000 0.000000 0.000000 0.000000 0.000000 0.000000 0.000000 0.000000 0.000000 0.000000 0.000000 0.000000 0.000000 0.000000 0.000000 0.000000 0.000000 0.000000 0.000000 0.000000 0.000000 0.000000 0.000000 0.000000 0.000000 0.000000 0.000000 0.000000 0.000000 0.000000 0.000000 0.000000 0.000000 0.000000 0.000000 0.000000 0.000000 0.000000 0.000000 0.000000 0.000000 0.000000 0.000000 0.000000 0.000000 0.000000 0.000000 0.000000 0.000000 0.000000 0.000000 0.000000 0.000000 0.000000 0.000000 0.000000 0.000000 0.000000 0.000000 0.000000 0.000000 0.000000 0.000000 0.000000 0.000000 0.000000 0.000000 0.000000 0.000000 0.000000 0.000000 0.000000 0.000000 0.000000 0.000000 0.000000 0.000000 0.000000 0.000000 0.000000 0.000001 0.000004 0.000013 0.000039 0.000109 0.000279 0.000653 0.001398 0.002746 0.004962 0.008263 0.012700 0.018056 0.023845
0.022101 0.018360 0.013898 0.009394 0.005644 0.003051 0.001512 0.000696 0.000298 0.000118 0.000043 0.000014 0.000004 0.000001 0.000000 0.000000 0.000000 0.000000 0.000000 0.000000 0.000000 0.000000 0.000000 0.000000 0.000000 0.000000 0.000000 0.000000 0.000000 0.000000 0.000000 0.000000 0.000000 0.000000 0.000000 0.000000 0.000000 0.000000 0.000000 0.000000 0.000000 0.000000 0.000000 0.000000 0.000000 0.000000 0.000000 0.000000 0.000000 0.000000 0.000000 0.000000 0.000000 0.000000 0.000000 0.000000 0.000000 0.000000 0.000000 0.000000 0.000000 0.000000 0.000000 0.000000 0.000000 0.000000 0.000000 0.000000 0.000000 0.000000 0.000000 0.000000 0.000000 0.000000 0.000000 0.000000 0.000000 0.000000 0.000000 0.000000 0.000000 0.000000 0.000000 0.000000 0.000000 0.000000 0.000000 0.000000 0.000000 0.000000 0.000000 0.000000 0.000000 0.000000 0.000000 0.000000 0.000000 0.000000 0.000000 0.000000 0.000000 0.000000 0.000000 0.000000 0.000000 0.000000 0.000000 0.000000 0.000000 0.000000 0.000000 0.000000 0.000000 0.000000 0.000001 0.000004 0.000014 0.000042 0.000118 0.000304 0.000710 0.001521 0.002991 0.005409 0.009012 0.013856 0.019704 0.026031
0.023937 0.019879 0.015053 0.010186 0.006128 0.003316 0.001643 0.000755 0.000323 0.000127 0.000046 0.000015 0.000004 0.000001 0.000000 0.000000 0.000000 0.000000 0.000000 0.000000 0.000000 0.000000 0.000000 0.000000 0.000000 0.000000 0.000000 0.000000 0.000000 0.000000 0.000000 0.000000 0.000000 0.000000 0.000000 0.000000 0.000000 0.000000 0.000000 0.000000 0.000000 0.000000 0.000000 0.000000 0.000000 0.000000 0.000000 0.000000 0.000000 0.000000 0.000000 0.000000 0.000000 0.000000 0.000000 0.000000 0.000000 0.000000 0.000000 0.000000 0.000000 0.000000 0.000000 0.000000 0.000000 0.000000 0.000000 0.000000 0.000000 0.000000 0.000000 0.000000 0.000000 0.000000 0.000000 0.000000 0.000000 0.000000 0.000000 0.000000 0.000000 0.000000 0.000000 0.000000 0.000000 0.000000 0.000000 0.000000 0.000000 0.000000 0.000000 0.000000 0.000000 0.000000 0.000000 0.000000 0.000000 0.000000 0.000000 0.000000 0.000000 0.000000 0.000000 0.000000 0.000000 0.000000 0.000000 0.000000 0.000000 0.000000 0.000000 0.000000 0.000000 0.000000 0.000001 0.000004 0.000015 0.000045 0.000128 0.000329 0.000770 0.001649 0.003244 0.005870 0.009787 0.015064 0.021453 0.028399
0.026134 0.021541 0.016262 0.010999 0.006623 0.003588 0.001778 0.000816 0.000348 0.000137 0.000049 0.000016 0.000005 0.000001 0.000000 0.000000 0.000000 0.000000 0.000000 0.000000 0.000000 0.000000 0.000000 0.000000 0.000000 0.000000 0.000000 0.000000 0.000000 0.000000 0.000000 0.000000 0.000000 0.000000 0.000000 0.000000 0.000000 0.000000 0.000000 0.000000 0.000000 0.000000 0.000000 0.000000 0.000000 0.000000 0.000000 0.000000 0.000000 0.000000 0.000000 0.000000 0.000000 0.000000 0.000000 0.000000 0.000000 0.000000 0.000000 0.000000 0.000000 0.000000 0.000000 0.000000 0.000000 0.000000 0.000000 0.000000 0.000000 0.000000 0.000000 0.000000 0.000000 0.000000 0.000000 0.000000 0.000000 0.000000 0.000000 0.000000 0.000000 0.000000 0.000000 0.000000 0.000000 0.000000 0.000000 0.000000 0.000000 0.000000 0.000000 0.000000 0.000000 0.000000 0.000000 0.000000 0.000000 0.000000 0.000000 0.000000 0.000000 0.000000 0.000000 0.000000 0.000000 0.000000 0.000000 0.000000 0.000000 0.000000 0.000000 0.000000 0.000000 0.000000 0.000001 0.000005 0.000016 0.000049 0.000138 0.000355 0.000831 0.001781 0.003504 0.006345 0.010590 0.016326 0.023316 0.031006
0.028390 0.023260 0.017504 0.011828 0.007127 0.003865 0.001917 0.000880 0.000375 0.000147 0.000053 0.000017 0.000005 0.000001 0.000000 0.000000 0.000000 0.000000 0.000000 0.000000 0.000000 0.000000 0.000000 0.000000 0.000000 0.000000 0.000000 0.000000 0.000000 0.000000 0.000000 0.000000 0.000000 0.000000 0.000000 0.000000 0.000000 0.000000 0.000000 0.000000 0.000000 0.000000 0.000000 0.000000 0.000000 0.000000 0.000000 0.000000 0.000000 0.000000 0.000000 0.000000 0.000000 0.000000 0.000000 0.000000 0.000000 0.000000 0.000000 0.000000 0.000000 0.000000 0.000000 0.000000 0.000000 0.000000 0.000000 0.000000 0.000000 0.000000 0.000000 0.000000 0.000000 0.000000 0.000000 0.000000 0.000000 0.000000 0.000000 0.000000 0.000000 0.000000 0.000000 0.000000 0.000000 0.000000 0.000000 0.000000 0.000000 0.000000 0.000000 0.000000 0.000000 0.000000 0.000000 0.000000 0.000000 0.000000 0.000000 0.000000 0.000000 0.000000 0.000000 0.000000 0.000000 0.000000 0.000000 0.000000 0.000000 0.000000 0.000000 0.000000 0.000000 0.000000 0.000001 0.000005 0.000017 0.000053 0.000149 0.000382 0.000894 0.001916 0.003772 0.006834 0.011417 0.017632 0.025243 0.033678
0.030633 0.024994 0.018761 0.012669 0.007639 0.004149 0.002060 0.000946 0.000402 0.000158 0.000057 0.000018 0.000005 0.000001 0.000000 0.000000 0.000000 0.000000 0.000000 0.000000 0.000000 0.000000 0.000000 0.000000 0.000000 0.000000 0.000000 0.000000 0.000000 0.000000 0.000000 0.000000 0.000000 0.000000 0.000000 0.000000 0.000000 0.000000 0.000000 0.000000 0.000000 0.000000 0.000000 0.000000 0.000000 0.000000 0.000000 0.000000 0.000000 0.000000 0.000000 0.000000 0.000000 0.000000 0.000000 0.000000 0.000000 0.000000 0.000000 0.000000 0.000000 0.000000 0.000000 0.000000 0.000000 0.000000 0.000000 0.000000 0.000000 0.000000 0.000000 0.000000 0.000000 0.000000 0.000000 0.000000 0.000000 0.000000 0.000000 0.000000 0.000000 0.000000 0.000000 0.000000 0.000000 0.000000 0.000000 0.000000 0.000000 0.000000 0.000000 0.000000 0.000000 0.000000 0.000000 0.000000 0.000000 0.000000 0.000000 0.000000 0.000000 0.000000 0.000000 0.000000 0.000000 0.000000 0.000000 0.000000 0.000000 0.000000 0.000000 0.000000 0.000000 0.000000 0.000001 0.000005 0.000018 0.000057 0.000160 0.000410 0.000959 0.002057 0.004049 0.007337 0.012269 0.018973 0.027219 0.036404
0.032867 0.026737 0.020032 0.013522 0.008162 0.004440 0.002208 0.001014 0.000431 0.000169 0.000060 0.000020 0.000006 0.000002 0.000000 0.000000 0.000000 0.000000 0.000000 0.000000 0.000000 0.000000 0.000000 0.000000 0.000000 0.000000 0.000000 0.000000 0.000000 0.000000 0.000000 0.000000 0.000000 0.000000 0.000000 0.000000 0.000000 0.000000 0.000000 0.000000 0.000000 0.000000 0.000000 0.000000 0.000000 0.000000 0.000000 0.000000 0.000000 0.000000 0.000000 0.000000 0.000000 0.000000 0.000000 0.000000 0.000000 0.000000 0.000000 0.000000 0.000000 0.000000 0.000000 0.000000 0.000000 0.000000 0.000000 0.000000 0.000000 0.000000 0.000000 0.000000 0.000000 0.000000 0.000000 0.000000 0.000000 0.000000 0.000000 0.000000 0.000000 0.000000 0.000000 0.000000 0.000000 0.000000 0.000000 0.000000 0.000000 0.000000 0.000000 0.000000 0.000000 0.000000 0.000000 0.000000 0.000000 0.000000 0.000000 0.000000 0.000000 0.000000 0.000000 0.000000 0.000000 0.000000 0.000000 0.000000 0.000000 0.000000 0.000000 0.000000 0.000000 0.000000 0.000001 0.000006 0.000019 0.000060 0.000171 0.000438 0.001027 0.002202 0.004335 0.007858 0.013147 0.020352 0.029231 0.039136
0.035087 0.028499 0.021328 0.014396 0.008698 0.004740 0.002361 0.001085 0.000461 0.000180 0.000064 0.000021 0.000006 0.000002 0.000000 0.000000 0.000000 0.000000 0.000000 0.000000 0.000000 0.000000 0.000000 0.000000 0.000000 0.000000 0.000000 0.000000 0.000000 0.000000 0.000000 0.000000 0.000000 0.000000 0.000000 0.000000 0.000000 0.000000 0.000000 0.000000 0.000000 0.000000 0.000000 0.000000 0.000000 0.000000 0.000000 0.000000 0.000000 0.000000 0.000000 0.000000 0.000000 0.000000 0.000000 0.000000 0.000000 0.000000 0.000000 0.000000 0.000000 0.000000 0.000000 0.000000 0.000000 0.000000 0.000000 0.000000 0.000000 0.000000 0.000000 0.000000 0.000000 0.000000 0.000000 0.000000 0.000000 0.000000 0.000000 0.000000 0.000000 0.000000 0.000000 0.000000 0.000000 0.000000 0.000000 0.000000 0.000000 0.000000 0.000000 0.000000 0.000000 0.000000 0.000000 0.000000 0.000000 0.000000 0.000000 0.000000 0.000000 0.000000 0.000000 0.000000 0.000000 0.000000 0.000000 0.000000 0.000000 0.000000 0.000000 0.000000 0.000000 0.000000 0.000002 0.000006 0.000021 0.000065 0.000182 0.000468 0.001097 0.002353 0.004632 0.008399 0.014057 0.021776 0.031306 0.041953
0.037341 0.030311 0.022668 0.015302 0.009255 0.005051 0.002519 0.001159 0.000492 0.000192 0.000069 0.000022 0.000006 0.000002 0.000000 0.000000 0.000000 0.000000 0.000000 0.000000 0.000000 0.000000 0.000000 0.000000 0.000000 0.000000 0.000000 0.000000 0.000000 0.000000 0.000000 0.000000 0.000000 0.000000 0.000000 0.000000 0.000000 0.000000 0.000000 0.000000 0.000000 0.000000 0.000000 0.000000 0.000000 0.000000 0.000000 0.000000 0.000000 0.000000 0.000000 0.000000 0.000000 0.000000 0.000000 0.000000 0.000000 0.000000 0.000000 0.000000 0.000000 0.000000 0.000000 0.000000 0.000000 0.000000 0.000000 0.000000 0.000000 0.000000 0.000000 0.000000 0.000000 0.000000 0.000000 0.000000 0.000000 0.000000 0.000000 0.000000 0.000000 0.000000 0.000000 0.000000 0.000000 0.000000 0.000000 0.000000 0.000000 0.000000 0.000000 0.000000 0.000000 0.000000 0.000000 0.000000 0.000000 0.000000 0.000000 0.000000 0.000000 0.000000 0.000000 0.000000 0.000000 0.000000 0.000000 0.000000 0.000000 0.000000 0.000000 0.000000 0.000000 0.000000 0.000002 0.000006 0.000022 0.000069 0.000195 0.000499 0.001170 0.002510 0.004943 0.008963 0.015007 0.023259 0.033458 0.044867
0.039778 0.032232 0.024075 0.016248 0.009835 0.005375 0.002684 0.001236 0.000525 0.000205 0.000073 0.000024 0.000007 0.000002 0.000000 0.000000 0.000000 0.000000 0.000000 0.000000 0.000000 0.000000 0.000000 0.000000 0.000000 0.000000 0.000000 0.000000 0.000000 0.000000 0.000000 0.000000 0.000000 0.000000 0.000000 0.000000 0.000000 0.000000 0.000000 0.000000 0.000000 0.000000 0.000000 0.000000 0.000000 0.000000 0.000000 0.000000 0.000000 0.000000 0.000000 0.000000 0.000000 0.000000 0.000000 0.000000 0.000000 0.000000 0.000000 0.000000 0.000000 0.000000 0.000000 0.000000 0.000000 0.000000 0.000000 0.000000 0.000000 0.000000 0.000000 0.000000 0.000000 0.000000 0.000000 0.000000 0.000000 0.000000 0.000000 0.000000 0.000000 0.000000 0.000000 0.000000 0.000000 0.000000 0.000000 0.000000 0.000000 0.000000 0.000000 0.000000 0.000000 0.000000 0.000000 0.000000 0.000000 0.000000 0.000000 0.000000 0.000000 0.000000 0.000000 0.000000 0.000000 0.000000 0.000000 0.000000 0.000000 0.000000 0.000000 0.000000 0.000000 0.000000 0.000002 0.000007 0.000024 0.000073 0.000207 0.000532 0.001246 0.002674 0.005267 0.009554 0.016001 0.024811 0.035709 0.047912
0.042398 0.034277 0.025563 0.017243 0.010443 0.005714 0.002857 0.001316 0.000559 0.000218 0.000078 0.000025 0.000007 0.000002 0.000000 0.000000 0.000000 0.000000 0.000000 0.000000 0.000000 0.000000 0.000000 0.000000 0.000000 0.000000 0.000000 0.000000 0.000000 0.000000 0.000000 0.000000 0.000000 0.000000 0.000000 0.000000 0.000000 0.000000 0.000000 0.000000 0.000000 0.000000 0.000000 0.000000 0.000000 0.000000 0.000000 0.000000 0.000000 0.000000 0.000000 0.000000 0.000000 0.000000 0.000000 0.000000 0.000000 0.000000 0.000000 0.000000 0.000000 0.000000 0.000000 0.000000 0.000000 0.000000 0.000000 0.000000 0.000000 0.000000 0.000000 0.000000 0.000000 0.000000 0.000000 0.000000 0.000000 0.000000 0.000000 0.000000 0.000000 0.000000 0.000000 0.000000 0.000000 0.000000 0.000000 0.000000 0.000000 0.000000 0.000000 0.000000 0.000000 0.000000 0.000000 0.000000 0.000000 0.000000 0.000000 0.000000 0.000000 0.000000 0.000000 0.000000 0.000000 0.000000 0.000000 0.000000 0.000000 0.000000 0.000000 0.000000 0.000000 0.000000 0.000002 0.000007 0.000025 0.000078 0.000220 0.000566 0.001326 0.002846 0.005606 0.010173 0.017044 0.026440 0.038072 0.051119