# vtk DataFile Version 2.0
test
ASCII
DATASET STRUCTURED_POINTS
DIMENSIONS 128 128 1
ORIGIN 0 0 0
SPACING 1 1 1
POINT_DATA 16384
SCALARS values float
LOOKUP_TABLE default
0.000225 0.000659 0.000080 0.000777 0.001314 0.002830 0.003663 0.005151 0.005619 0.006762 0.007942 0.009450 0.010796 0.012004 0.013788 0.015057 0.016358 0.017982 0.019137 0.020490 0.021708 0.022755 0.024097 0.025002 0.025962 0.027066 0.027830 0.028716 0.029655 0.030342 0.031077 0.031901 0.032462 0.033145 0.033820 0.034325 0.034835 0.035376 0.035693 0.035969 0.036228 0.036359 0.036369 0.036357 0.036249 0.035959 0.035474 0.034860 0.034211 0.033373 0.032320 0.031679 0.032420 0.033968 0.033812 0.031993 0.032055 0.033057 0.032389 0.032674 0.032943 0.032735 0.033457 0.033340 0.033889 0.034155 0.034650 0.035059 0.035505 0.035912 0.036490 0.036936 0.037532 0.038014 0.038638 0.039072 0.039591 0.039990 0.040472 0.040881 0.041209 0.041559 0.041871 0.042222 0.042488 0.042712 0.042968 0.043130 0.043278 0.043300 0.043231 0.043168 0.042912 0.042613 0.042193 0.041652 0.041126 0.040408 0.039645 0.038876 0.037950 0.037058 0.036077 0.034973 0.033933 0.032814 0.031644 0.030447 0.029079 0.027685 0.026303 0.024804 0.023236 0.021621 0.019883 0.018113 0.016312 0.014392 0.012398 0.010314 0.008102 0.005946 0.004035 0.002422 0.001161 0.000353 0.000011 0.000067
-0.001394 0.000112 0.000635 0.001251 0.001922 0.002901 0.003800 0.004839 0.005664 0.006660 0.007730 0.008915 0.010086 0.011245 0.012529 0.013694 0.014846 0.016045 0.017117 0.018192 0.019204 0.020148 0.021118 0.021954 0.022763 0.023568 0.024265 0.024956 0.025627 0.026210 0.026772 0.027324 0.027793 0.028262 0.028705 0.029083 0.029434 0.029761 0.030006 0.030207 0.030370 0.030469 0.030501 0.030486 0.030397 0.030203 0.029895 0.029495 0.029033 0.028497 0.027955 0.027671 0.027899 0.028354 0.028289 0.027745 0.027653 0.027848 0.027710 0.027769 0.027852 0.027864 0.028093 0.028174 0.028415 0.028626 0.028905 0.029182 0.029477 0.029779 0.030134 0.030476 0.030859 0.031226 0.031621 0.031969 0.032323 0.032642 0.032968 0.033263 0.033523 0.033774 0.034007 0.034235 0.034428 0.034595 0.034750 0.034861 0.034936 0.034947 0.034899 0.034807 0.034625 0.034381 0.034059 0.033661 0.033216 0.032681 0.032090 0.031456 0.030748 0.030010 0.029215 0.028362 0.027494 0.026583 0.025631 0.024637 0.023568 0.022461 0.021327 0.020135 0.018891 0.017600 0.016248 0.014855 0.013424 0.011931 0.010387 0.008796 0.007175 0.005608 0.004188 0.002967 0.001972 0.001206 0.000590 -0.000056
-0.000185 0.000561 0.001069 0.001558 0.002124 0.002813 0.003569 0.004376 0.005187 0.006049 0.006965 0.007926 0.008900 0.009881 0.010872 0.011835 0.012774 0.013694 0.014569 0.015409 0.016208 0.016965 0.017688 0.018357 0.018986 0.019578 0.020123 0.020633 0.021108 0.021540 0.021940 0.022311 0.022645 0.022957 0.023243 0.023499 0.023730 0.023937 0.024110 0.024253 0.024370 0.024452 0.024498 0.024506 0.024466 0.024363 0.024193 0.023961 0.023679 0.023367 0.023083 0.022930 0.022963 0.023066 0.023039 0.022890 0.022808 0.022796 0.022761 0.022753 0.022766 0.022791 0.022855 0.022926 0.023030 0.023154 0.023303 0.023467 0.023646 0.023840 0.024055 0.024282 0.024524 0.024773 0.025026 0.025273 0.025513 0.025743 0.025965 0.026173 0.026362 0.026539 0.026702 0.026852 0.026983 0.027095 0.027189 0.027258 0.027296 0.027297 0.027258 0.027177 0.027045 0.026861 0.026624 0.026333 0.025992 0.025596 0.025151 0.024660 0.024122 0.023544 0.022924 0.022266 0.021577 0.020857 0.020104 0.019315 0.018487 0.017625 0.016734 0.015807 0.014846 0.013850 0.012820 0.011759 0.010670 0.009553 0.008412 0.007259 0.006119 0.005035 0.004055 0.003207 0.002489 0.001859 0.001207 0.000352
0.000278 0.001107 0.001561 0.001896 0.002259 0.002704 0.003228 0.003818 0.004456 0.005140 0.005863 0.006616 0.007382 0.008151 0.008914 0.009660 0.010383 0.011082 0.011750 0.012386 0.012989 0.013559 0.014095 0.014595 0.015061 0.015492 0.015888 0.016253 0.016586 0.016889 0.017164 0.017413 0.017637 0.017842 0.018027 0.018193 0.018343 0.018477 0.018595 0.018696 0.018781 0.018849 0.018896 0.018920 0.018913 0.018870 0.018787 0.018663 0.018507 0.018334 0.018179 0.018081 0.018057 0.018067 0.018050 0.017998 0.017948 0.017911 0.017880 0.017857 0.017845 0.017845 0.017859 0.017886 0.017928 0.017987 0.018061 0.018149 0.018249 0.018363 0.018490 0.018629 0.018779 0.018937 0.019100 0.019262 0.019423 0.019579 0.019729 0.019871 0.020002 0.020122 0.020232 0.020330 0.020416 0.020488 0.020545 0.020584 0.020602 0.020597 0.020564 0.020501 0.020405 0.020273 0.020103 0.019894 0.019646 0.019358 0.019032 0.018669 0.018270 0.017838 0.017372 0.016877 0.016355 0.015807 0.015233 0.014634 0.014008 0.013357 0.012684 0.011987 0.011266 0.010524 0.009761 0.008980 0.008186 0.007384 0.006584 0.005801 0.005056 0.004377 0.003789 0.003299 0.002885 0.002483 0.001976 0.001212
0.001223 0.001909 0.002204 0.002341 0.002466 0.002648 0.002909 0.003250 0.003662 0.004132 0.004648 0.005194 0.005755 0.006322 0.006884 0.007433 0.007965 0.008477 0.008965 0.009430 0.009869 0.010282 0.010670 0.011030 0.011364 0.011672 0.011954 0.012211 0.012444 0.012654 0.012843 0.013012 0.013164 0.013300 0.013422 0.013531 0.013630 0.013718 0.013796 0.013865 0.013925 0.013975 0.014013 0.014037 0.014043 0.014027 0.013987 0.013922 0.013837 0.013741 0.013652 0.013586 0.013551 0.013535 0.013518 0.013491 0.013458 0.013426 0.013397 0.013373 0.013355 0.013343 0.013338 0.013342 0.013355 0.013378 0.013412 0.013457 0.013511 0.013576 0.013650 0.013733 0.013825 0.013923 0.014026 0.014130 0.014235 0.014337 0.014437 0.014531 0.014618 0.014698 0.014771 0.014835 0.014889 0.014934 0.014968 0.014990 0.014997 0.014989 0.014963 0.014916 0.014847 0.014753 0.014633 0.014485 0.014310 0.014106 0.013875 0.013616 0.013330 0.013019 0.012684 0.012326 0.011946 0.011547 0.011129 0.010692 0.010236 0.009763 0.009274 0.008768 0.008247 0.007712 0.007167 0.006614 0.006060 0.005516 0.004993 0.004511 0.004091 0.003755 0.003518 0.003374 0.003287 0.003181 0.002934 0.002389
0.002206 0.002871 0.002993 0.002894 0.002757 0.002666 0.002659 0.002748 0.002928 0.003186 0.003503 0.003860 0.004241 0.004632 0.005023 0.005408 0.005781 0.006141 0.006484 0.006810 0.007118 0.007408 0.007680 0.007932 0.008166 0.008381 0.008578 0.008756 0.008918 0.009064 0.009194 0.009311 0.009414 0.009507 0.009589 0.009662 0.009727 0.009785 0.009836 0.009881 0.009921 0.009954 0.009980 0.009997 0.010003 0.009996 0.009974 0.009938 0.009890 0.009835 0.009781 0.009736 0.009704 0.009683 0.009664 0.009644 0.009621 0.009597 0.009574 0.009554 0.009536 0.009523 0.009513 0.009508 0.009509 0.009517 0.009532 0.009554 0.009584 0.009621 0.009664 0.009714 0.009770 0.009830 0.009894 0.009960 0.010027 0.010093 0.010156 0.010217 0.010274 0.010326 0.010373 0.010414 0.010448 0.010476 0.010496 0.010508 0.010510 0.010501 0.010481 0.010446 0.010397 0.010332 0.010249 0.010147 0.010027 0.009887 0.009727 0.009549 0.009352 0.009137 0.008905 0.008657 0.008393 0.008115 0.007823 0.007518 0.007200 0.006870 0.006528 0.006175 0.005813 0.005443 0.005068 0.004695 0.004331 0.003990 0.003690 0.003451 0.003299 0.003256 0.003332 0.003518 0.003771 0.004010 0.004111 0.003915
0.004011 0.004124 0.003913 0.003537 0.003126 0.002766 0.002503 0.002357 0.002327 0.002396 0.002542 0.002741 0.002973 0.003224 0.003480 0.003736 0.003986 0.004228 0.004459 0.004679 0.004887 0.005083 0.005266 0.005437 0.005595 0.005741 0.005874 0.005996 0.006106 0.006205 0.006294 0.006373 0.006443 0.006506 0.006561 0.006609 0.006652 0.006689 0.006722 0.006751 0.006775 0.006795 0.006810 0.006820 0.006824 0.006819 0.006806 0.006785 0.006757 0.006724 0.006691 0.006661 0.006636 0.006616 0.006600 0.006583 0.006566 0.006549 0.006532 0.006517 0.006504 0.006492 0.006483 0.006477 0.006475 0.006476 0.006483 0.006494 0.006510 0.006531 0.006556 0.006586 0.006620 0.006657 0.006696 0.006737 0.006778 0.006819 0.006859 0.006897 0.006933 0.006966 0.006996 0.007021 0.007042 0.007059 0.007071 0.007077 0.007076 0.007069 0.007054 0.007029 0.006996 0.006951 0.006895 0.006828 0.006747 0.006655 0.006549 0.006431 0.006300 0.006158 0.006004 0.005839 0.005663 0.005478 0.005283 0.005078 0.004865 0.004644 0.004415 0.004179 0.003937 0.003692 0.003448 0.003212 0.002994 0.002812 0.002686 0.002643 0.002712 0.002919 0.003276 0.003775 0.004371 0.004984 0.005500 0.005781
0.005397 0.005368 0.004907 0.004254 0.003570 0.002952 0.002453 0.002099 0.001886 0.001798 0.001805 0.001880 0.001998 0.002143 0.002299 0.002460 0.002619 0.002774 0.002923 0.003065 0.003200 0.003327 0.003446 0.003557 0.003660 0.003755 0.003842 0.003921 0.003994 0.004059 0.004117 0.004169 0.004216 0.004256 0.004292 0.004324 0.004351 0.004374 0.004395 0.004412 0.004426 0.004437 0.004446 0.004451 0.004452 0.004449 0.004441 0.004428 0.004412 0.004393 0.004373 0.004353 0.004335 0.004320 0.004307 0.004294 0.004282 0.004270 0.004259 0.004249 0.004240 0.004232 0.004225 0.004219 0.004216 0.004216 0.004218 0.004224 0.004233 0.004245 0.004259 0.004277 0.004297 0.004319 0.004342 0.004367 0.004392 0.004417 0.004441 0.004464 0.004486 0.004506 0.004524 0.004540 0.004553 0.004563 0.004569 0.004572 0.004571 0.004565 0.004554 0.004538 0.004515 0.004486 0.004450 0.004406 0.004355 0.004296 0.004229 0.004154 0.004071 0.003980 0.003882 0.003777 0.003665 0.003546 0.003421 0.003290 0.003153 0.003011 0.002864 0.002713 0.002559 0.002405 0.002257 0.002122 0.002014 0.001951 0.001961 0.002075 0.002328 0.002751 0.003362 0.004154 0.005088 0.006085 0.007038 0.007826
0.007068 0.006713 0.005961 0.005032 0.004084 0.003222 0.002508 0.001969 0.001602 0.001384 0.001282 0.001263 0.001299 0.001367 0.001453 0.001547 0.001642 0.001737 0.001829 0.001917 0.002000 0.002079 0.002153 0.002222 0.002286 0.002345 0.002400 0.002450 0.002495 0.002536 0.002573 0.002606 0.002635 0.002660 0.002683 0.002702 0.002719 0.002733 0.002745 0.002755 0.002763 0.002769 0.002774 0.002776 0.002776 0.002774 0.002769 0.002762 0.002752 0.002741 0.002729 0.002717 0.002706 0.002695 0.002686 0.002677 0.002669 0.002662 0.002655 0.002648 0.002642 0.002637 0.002632 0.002628 0.002626 0.002625 0.002625 0.002628 0.002633 0.002639 0.002648 0.002658 0.002670 0.002682 0.002696 0.002710 0.002725 0.002740 0.002754 0.002768 0.002781 0.002792 0.002803 0.002812 0.002820 0.002825 0.002829 0.002830 0.002828 0.002824 0.002817 0.002806 0.002792 0.002774 0.002752 0.002725 0.002693 0.002657 0.002616 0.002570 0.002519 0.002464 0.002404 0.002340 0.002271 0.002199 0.002122 0.002041 0.001957 0.001870 0.001780 0.001687 0.001595 0.001505 0.001424 0.001362 0.001333 0.001361 0.001475 0.001716 0.002123 0.002735 0.003576 0.004645 0.005905 0.007279 0.008670 0.009975
0.008759 0.008076 0.007047 0.005854 0.004655 0.003565 0.002653 0.001950 0.001451 0.001127 0.000941 0.000852 0.000828 0.000844 0.000882 0.000931 0.000984 0.001039 0.001092 0.001144 0.001194 0.001240 0.001284 0.001325 0.001363 0.001399 0.001431 0.001461 0.001489 0.001513 0.001535 0.001555 0.001573 0.001588 0.001601 0.001613 0.001623 0.001631 0.001638 0.001643 0.001647 0.001650 0.001652 0.001653 0.001653 0.001652 0.001649 0.001645 0.001640 0.001634 0.001627 0.001620 0.001613 0.001606 0.001600 0.001595 0.001590 0.001585 0.001581 0.001577 0.001573 0.001570 0.001567 0.001564 0.001563 0.001562 0.001562 0.001563 0.001565 0.001569 0.001574 0.001580 0.001586 0.001593 0.001601 0.001609 0.001618 0.001626 0.001634 0.001642 0.001649 0.001656 0.001662 0.001667 0.001671 0.001674 0.001676 0.001676 0.001675 0.001672 0.001668 0.001661 0.001653 0.001642 0.001628 0.001612 0.001594 0.001573 0.001548 0.001522 0.001492 0.001460 0.001425 0.001387 0.001347 0.001304 0.001259 0.001212 0.001162 0.001111 0.001058 0.001005 0.000953 0.000907 0.000871 0.000859 0.000887 0.000982 0.001179 0.001522 0.002061 0.002842 0.003896 0.005227 0.006799 0.008535 0.010334 0.012098
0.010276 0.009381 0.008129 0.006701 0.005268 0.003963 0.002869 0.002018 0.001404 0.000992 0.000738 0.000597 0.000531 0.000511 0.000517 0.000537 0.000564 0.000594 0.000623 0.000652 0.000680 0.000707 0.000731 0.000755 0.000776 0.000797 0.000815 0.000832 0.000848 0.000862 0.000875 0.000886 0.000896 0.000905 0.000912 0.000919 0.000924 0.000929 0.000933 0.000935 0.000938 0.000939 0.000940 0.000940 0.000940 0.000939 0.000937 0.000935 0.000932 0.000929 0.000925 0.000921 0.000917 0.000913 0.000910 0.000907 0.000904 0.000901 0.000899 0.000897 0.000895 0.000893 0.000891 0.000889 0.000888 0.000887 0.000887 0.000888 0.000889 0.000891 0.000894 0.000897 0.000900 0.000904 0.000909 0.000913 0.000918 0.000922 0.000927 0.000931 0.000935 0.000939 0.000942 0.000945 0.000947 0.000949 0.000949 0.000949 0.000949 0.000947 0.000944 0.000940 0.000935 0.000929 0.000921 0.000912 0.000902 0.000890 0.000876 0.000861 0.000845 0.000827 0.000807 0.000786 0.000763 0.000739 0.000714 0.000688 0.000660 0.000631 0.000602 0.000573 0.000548 0.000529 0.000524 0.000546 0.000614 0.000760 0.001022 0.001453 0.002109 0.003043 0.004296 0.005877 0.007749 0.009830 0.012003 0.014136
0.011564 0.010604 0.009192 0.007558 0.005908 0.004401 0.003136 0.002149 0.001431 0.000942 0.000633 0.000451 0.000355 0.000311 0.000297 0.000300 0.000310 0.000324 0.000340 0.000355 0.000370 0.000384 0.000398 0.000410 0.000422 0.000433 0.000443 0.000452 0.000461 0.000469 0.000476 0.000482 0.000487 0.000492 0.000496 0.000500 0.000502 0.000505 0.000507 0.000508 0.000509 0.000510 0.000510 0.000510 0.000510 0.000509 0.000508 0.000507 0.000506 0.000504 0.000502 0.000500 0.000498 0.000496 0.000494 0.000492 0.000490 0.000489 0.000488 0.000487 0.000486 0.000485 0.000483 0.000483 0.000482 0.000481 0.000481 0.000481 0.000482 0.000483 0.000484 0.000486 0.000488 0.000490 0.000492 0.000495 0.000497 0.000500 0.000502 0.000505 0.000507 0.000509 0.000510 0.000512 0.000513 0.000514 0.000514 0.000514 0.000513 0.000512 0.000511 0.000508 0.000506 0.000502 0.000498 0.000493 0.000487 0.000481 0.000474 0.000466 0.000457 0.000447 0.000436 0.000425 0.000413 0.000400 0.000387 0.000372 0.000358 0.000342 0.000328 0.000314 0.000304 0.000302 0.000317 0.000362 0.000461 0.000646 0.000963 0.001470 0.002232 0.003312 0.004756 0.006579 0.008744 0.011163 0.013707 0.016230
0.012860 0.011813 0.010251 0.008424 0.006567 0.004867 0.003439 0.002323 0.001508 0.000951 0.000594 0.000379 0.000260 0.000199 0.000172 0.000164 0.000165 0.000170 0.000177 0.000184 0.000192 0.000199 0.000206 0.000213 0.000219 0.000225 0.000230 0.000235 0.000239 0.000243 0.000247 0.000250 0.000253 0.000255 0.000257 0.000259 0.000260 0.000262 0.000262 0.000263 0.000264 0.000264 0.000264 0.000264 0.000264 0.000263 0.000263 0.000262 0.000261 0.000261 0.000260 0.000259 0.000257 0.000256 0.000255 0.000254 0.000254 0.000253 0.000252 0.000252 0.000251 0.000251 0.000250 0.000250 0.000249 0.000249 0.000249 0.000249 0.000249 0.000250 0.000250 0.000251 0.000252 0.000253 0.000255 0.000256 0.000257 0.000258 0.000260 0.000261 0.000262 0.000263 0.000264 0.000265 0.000265 0.000265 0.000265 0.000265 0.000265 0.000264 0.000263 0.000262 0.000261 0.000259 0.000257 0.000254 0.000251 0.000248 0.000244 0.000240 0.000236 0.000231 0.000225 0.000219 0.000213 0.000207 0.000200 0.000192 0.000185 0.000178 0.000171 0.000166 0.000165 0.000174 0.000202 0.000264 0.000385 0.000602 0.000968 0.001546 0.002409 0.003628 0.005260 0.007321 0.009779 0.012539 0.015459 0.018377
0.014154 0.013036 0.011326 0.009305 0.007243 0.005354 0.003766 0.002525 0.001619 0.000996 0.000595 0.000352 0.000214 0.000141 0.000105 0.000090 0.000085 0.000086 0.000088 0.000092 0.000095 0.000099 0.000102 0.000105 0.000108 0.000111 0.000114 0.000116 0.000118 0.000120 0.000122 0.000123 0.000125 0.000126 0.000127 0.000128 0.000129 0.000129 0.000130 0.000130 0.000130 0.000130 0.000130 0.000130 0.000130 0.000130 0.000129 0.000129 0.000129 0.000128 0.000128 0.000127 0.000127 0.000126 0.000126 0.000125 0.000125 0.000125 0.000125 0.000124 0.000124 0.000124 0.000123 0.000123 0.000123 0.000123 0.000123 0.000123 0.000123 0.000123 0.000123 0.000124 0.000124 0.000125 0.000126 0.000126 0.000127 0.000127 0.000128 0.000129 0.000129 0.000130 0.000130 0.000130 0.000131 0.000131 0.000131 0.000131 0.000130 0.000130 0.000130 0.000129 0.000128 0.000127 0.000126 0.000125 0.000124 0.000122 0.000120 0.000118 0.000116 0.000113 0.000111 0.000108 0.000105 0.000102 0.000098 0.000095 0.000091 0.000088 0.000086 0.000086 0.000091 0.000106 0.000142 0.000217 0.000357 0.000603 0.001013 0.001658 0.002620 0.003978 0.005797 0.008100 0.010856 0.013967 0.017282 0.020622
0.015502 0.014327 0.012447 0.010215 0.007941 0.005860 0.004112 0.002747 0.001750 0.001064 0.000621 0.000352 0.000197 0.000114 0.000072 0.000052 0.000044 0.000042 0.000042 0.000043 0.000045 0.000047 0.000048 0.000050 0.000051 0.000052 0.000053 0.000055 0.000056 0.000057 0.000057 0.000058 0.000059 0.000059 0.000060 0.000060 0.000060 0.000061 0.000061 0.000061 0.000061 0.000061 0.000061 0.000061 0.000061 0.000061 0.000061 0.000061 0.000060 0.000060 0.000060 0.000060 0.000059 0.000059 0.000059 0.000059 0.000059 0.000059 0.000058 0.000058 0.000058 0.000058 0.000058 0.000058 0.000058 0.000058 0.000058 0.000058 0.000058 0.000058 0.000058 0.000058 0.000058 0.000059 0.000059 0.000059 0.000060 0.000060 0.000060 0.000060 0.000061 0.000061 0.000061 0.000061 0.000061 0.000061 0.000061 0.000061 0.000061 0.000061 0.000061 0.000060 0.000060 0.000060 0.000059 0.000059 0.000058 0.000057 0.000056 0.000055 0.000054 0.000053 0.000052 0.000051 0.000049 0.000048 0.000046 0.000045 0.000043 0.000042 0.000042 0.000045 0.000053 0.000073 0.000115 0.000200 0.000356 0.000630 0.001083 0.001794 0.002855 0.004354 0.006362 0.008913 0.011978 0.015460 0.019199 0.023002
0.017191 0.015775 0.013646 0.011167 0.008664 0.006384 0.004474 0.002983 0.001894 0.001146 0.000662 0.000366 0.000197 0.000104 0.000057 0.000035 0.000025 0.000021 0.000020 0.000020 0.000020 0.000021 0.000022 0.000022 0.000023 0.000023 0.000024 0.000024 0.000025 0.000025 0.000026 0.000026 0.000026 0.000027 0.000027 0.000027 0.000027 0.000027 0.000027 0.000027 0.000027 0.000027 0.000027 0.000027 0.000027 0.000027 0.000027 0.000027 0.000027 0.000027 0.000027 0.000027 0.000027 0.000026 0.000026 0.000026 0.000026 0.000026 0.000026 0.000026 0.000026 0.000026 0.000026 0.000026 0.000026 0.000026 0.000026 0.000026 0.000026 0.000026 0.000026 0.000026 0.000026 0.000026 0.000026 0.000026 0.000027 0.000027 0.000027 0.000027 0.000027 0.000027 0.000027 0.000027 0.000027 0.000027 0.000027 0.000027 0.000027 0.000027 0.000027 0.000027 0.000027 0.000027 0.000026 0.000026 0.000026 0.000025 0.000025 0.000025 0.000024 0.000024 0.000023 0.000023 0.000022 0.000021 0.000021 0.000020 0.000019 0.000019 0.000021 0.000025 0.000035 0.000058 0.000106 0.000200 0.000372 0.000671 0.001167 0.001946 0.003107 0.004749 0.006954 0.009762 0.013150 0.017025 0.021227 0.025552
0.019155 0.017369 0.014925 0.012167 0.009417 0.006929 0.004850 0.003231 0.002048 0.001236 0.000710 0.000390 0.000205 0.000104 0.000052 0.000027 0.000016 0.000011 0.000009 0.000009 0.000009 0.000009 0.000009 0.000009 0.000010 0.000010 0.000010 0.000010 0.000011 0.000011 0.000011 0.000011 0.000011 0.000011 0.000011 0.000011 0.000011 0.000012 0.000012 0.000012 0.000012 0.000012 0.000012 0.000012 0.000012 0.000012 0.000011 0.000011 0.000011 0.000011 0.000011 0.000011 0.000011 0.000011 0.000011 0.000011 0.000011 0.000011 0.000011 0.000011 0.000011 0.000011 0.000011 0.000011 0.000011 0.000011 0.000011 0.000011 0.000011 0.000011 0.000011 0.000011 0.000011 0.000011 0.000011 0.000011 0.000011 0.000011 0.000011 0.000011 0.000012 0.000012 0.000012 0.000012 0.000012 0.000012 0.000012 0.000012 0.000012 0.000012 0.000011 0.000011 0.000011 0.000011 0.000011 0.000011 0.000011 0.000011 0.000011 0.000010 0.000010 0.000010 0.000010 0.000010 0.000009 0.000009 0.000009 0.000009 0.000009 0.000009 0.000011 0.000016 0.000028 0.000053 0.000106 0.000208 0.000396 0.000722 0.001261 0.002109 0.003373 0.005164 0.007572 0.010646 0.014371 0.018659 0.023360 0.028296
0.021123 0.019028 0.016265 0.013210 0.010200 0.007494 0.005240 0.003488 0.002210 0.001332 0.000764 0.000417 0.000217 0.000108 0.000052 0.000025 0.000012 0.000007 0.000005 0.000004 0.000004 0.000004 0.000004 0.000004 0.000004 0.000004 0.000004 0.000004 0.000004 0.000004 0.000004 0.000004 0.000005 0.000005 0.000005 0.000005 0.000005 0.000005 0.000005 0.000005 0.000005 0.000005 0.000005 0.000005 0.000005 0.000005 0.000005 0.000005 0.000005 0.000005 0.000005 0.000005 0.000005 0.000004 0.000004 0.000004 0.000004 0.000004 0.000004 0.000004 0.000004 0.000004 0.000004 0.000004 0.000004 0.000004 0.000004 0.000004 0.000004 0.000004 0.000004 0.000004 0.000004 0.000004 0.000004 0.000005 0.000005 0.000005 0.000005 0.000005 0.000005 0.000005 0.000005 0.000005 0.000005 0.000005 0.000005 0.000005 0.000005 0.000005 0.000005 0.000005 0.000005 0.000005 0.000004 0.000004 0.000004 0.000004 0.000004 0.000004 0.000004 0.000004 0.000004 0.000004 0.000004 0.000004 0.000004 0.000004 0.000004 0.000005 0.000007 0.000013 0.000026 0.000054 0.000111 0.000221 0.000424 0.000777 0.001362 0.002280 0.003651 0.005595 0.008214 0.011564 0.015636 0.020343 0.025534 0.031019
0.023169 0.020745 0.017653 0.014290 0.011010 0.008077 0.005643 0.003754 0.002377 0.001432 0.000821 0.000447 0.000232 0.000115 0.000054 0.000025 0.000011 0.000005 0.000003 0.000002 0.000002 0.000001 0.000001 0.000001 0.000002 0.000002 0.000002 0.000002 0.000002 0.000002 0.000002 0.000002 0.000002 0.000002 0.000002 0.000002 0.000002 0.000002 0.000002 0.000002 0.000002 0.000002 0.000002 0.000002 0.000002 0.000002 0.000002 0.000002 0.000002 0.000002 0.000002 0.000002 0.000002 0.000002 0.000002 0.000002 0.000002 0.000002 0.000002 0.000002 0.000002 0.000002 0.000002 0.000002 0.000002 0.000002 0.000002 0.000002 0.000002 0.000002 0.000002 0.000002 0.000002 0.000002 0.000002 0.000002 0.000002 0.000002 0.000002 0.000002 0.000002 0.000002 0.000002 0.000002 0.000002 0.000002 0.000002 0.000002 0.000002 0.000002 0.000002 0.000002 0.000002 0.000002 0.000002 0.000002 0.000002 0.000002 0.000002 0.000002 0.000002 0.000002 0.000001 0.000001 0.000001 0.000001 0.000001 0.000001 0.000002 0.000003 0.000005 0.000012 0.000026 0.000056 0.000118 0.000237 0.000456 0.000837 0.001467 0.002459 0.003940 0.006043 0.008879 0.012514 0.016941 0.022071 0.027737 0.033727
0.025179 0.022487 0.019079 0.015403 0.011845 0.008679 0.006059 0.004029 0.002550 0.001536 0.000880 0.000479 0.000248 0.000123 0.000058 0.000026 0.000011 0.000005 0.000002 0.000001 0.000001 0.000001 0.000001 0.000001 0.000001 0.000001 0.000001 0.000001 0.000001 0.000001 0.000001 0.000001 0.000001 0.000001 0.000001 0.000001 0.000001 0.000001 0.000001 0.000001 0.000001 0.000001 0.000001 0.000001 0.000001 0.000001 0.000001 0.000001 0.000001 0.000001 0.000001 0.000001 0.000001 0.000001 0.000001 0.000001 0.000001 0.000001 0.000001 0.000001 0.000001 0.000001 0.000001 0.000001 0.000001 0.000001 0.000001 0.000001 0.000001 0.000001 0.000001 0.000001 0.000001 0.000001 0.000001 0.000001 0.000001 0.000001 0.000001 0.000001 0.000001 0.000001 0.000001 0.000001 0.000001 0.000001 0.000001 0.000001 0.000001 0.000001 0.000001 0.000001 0.000001 0.000001 0.000001 0.000001 0.000001 0.000001 0.000001 0.000001 0.000001 0.000001 0.000001 0.000001 0.000001 0.000001 0.000001 0.000001 0.000001 0.000002 0.000005 0.000012 0.000027 0.000059 0.000126 0.000254 0.000489 0.000899 0.001577 0.002645 0.004240 0.006508 0.009569 0.013498 0.018289 0.023845 0.029983 0.036458
0.027218 0.024274 0.020546 0.016551 0.012706 0.009300 0.006488 0.004313 0.002729 0.001643 0.000941 0.000513 0.000266 0.000131 0.000061 0.000027 0.000012 0.000005 0.000002 0.000001 0.000000 0.000000 0.000000 0.000000 0.000000 0.000000 0.000000 0.000000 0.000000 0.000000 0.000000 0.000000 0.000000 0.000000 0.000000 0.000000 0.000000 0.000000 0.000000 0.000000 0.000000 0.000000 0.000000 0.000000 0.000000 0.000000 0.000000 0.000000 0.000000 0.000000 0.000000 0.000000 0.000000 0.000000 0.000000 0.000000 0.000000 0.000000 0.000000 0.000000 0.000000 0.000000 0.000000 0.000000 0.000000 0.000000 0.000000 0.000000 0.000000 0.000000 0.000000 0.000000 0.000000 0.000000 0.000000 0.000000 0.000000 0.000000 0.000000 0.000000 0.000000 0.000000 0.000000 0.000000 0.000000 0.000000 0.000000 0.000000 0.000000 0.000000 0.000000 0.000000 0.000000 0.000000 0.000000 0.000000 0.000000 0.000000 0.000000 0.000000 0.000000 0.000000 0.000000 0.000000 0.000000 0.000000 0.000000 0.000000 0.000001 0.000002 0.000005 0.000012 0.000028 0.000063 0.000135 0.000272 0.000524 0.000964 0.001692 0.002838 0.004552 0.006990 0.010284 0.014515 0.019681 0.025678 0.032309 0.039315
0.029375 0.026144 0.022071 0.017738 0.013595 0.009941 0.006932 0.004606 0.002914 0.001754 0.001005 0.000547 0.000284 0.000140 0.000065 0.000029 0.000012 0.000005 0.000002 0.000001 0.000000 0.000000 0.000000 0.000000 0.000000 0.000000 0.000000 0.000000 0.000000 0.000000 0.000000 0.000000 0.000000 0.000000 0.000000 0.000000 0.000000 0.000000 0.000000 0.000000 0.000000 0.000000 0.000000 0.000000 0.000000 0.000000 0.000000 0.000000 0.000000 0.000000 0.000000 0.000000 0.000000 0.000000 0.000000 0.000000 0.000000 0.000000 0.000000 0.000000 0.000000 0.000000 0.000000 0.000000 0.000000 0.000000 0.000000 0.000000 0.000000 0.000000 0.000000 0.000000 0.000000 0.000000 0.000000 0.000000 0.000000 0.000000 0.000000 0.000000 0.000000 0.000000 0.000000 0.000000 0.000000 0.000000 0.000000 0.000000 0.000000 0.000000 0.000000 0.000000 0.000000 0.000000 0.000000 0.000000 0.000000 0.000000 0.000000 0.000000 0.000000 0.000000 0.000000 0.000000 0.000000 0.000000 0.000000 0.000000 0.000001 0.000002 0.000005 0.000013 0.000030 0.000068 0.000144 0.000291 0.000561 0.001031 0.001811 0.003038 0.004876 0.007490 0.011025 0.015571 0.021125 0.027580 0.034726 0.042289
0.031717 0.028128 0.023668 0.018973 0.014517 0.010605 0.007391 0.004909 0.003105 0.001870 0.001071 0.000583 0.000302 0.000149 0.000070 0.000031 0.000013 0.000005 0.000002 0.000001 0.000000 0.000000 0.000000 0.000000 0.000000 0.000000 0.000000 0.000000 0.000000 0.000000 0.000000 0.000000 0.000000 0.000000 0.000000 0.000000 0.000000 0.000000 0.000000 0.000000 0.000000 0.000000 0.000000 0.000000 0.000000 0.000000 0.000000 0.000000 0.000000 0.000000 0.000000 0.000000 0.000000 0.000000 0.000000 0.000000 0.000000 0.000000 0.000000 0.000000 0.000000 0.000000 0.000000 0.000000 0.000000 0.000000 0.000000 0.000000 0.000000 0.000000 0.000000 0.000000 0.000000 0.000000 0.000000 0.000000 0.000000 0.000000 0.000000 0.000000 0.000000 0.000000 0.000000 0.000000 0.000000 0.000000 0.000000 0.000000 0.000000 0.000000 0.000000 0.000000 0.000000 0.000000 0.000000 0.000000 0.000000 0.000000 0.000000 0.000000 0.000000 0.000000 0.000000 0.000000 0.000000 0.000000 0.000000 0.000000 0.000001 0.000002 0.000006 0.000014 0.000032 0.000072 0.000154 0.000311 0.000599 0.001102 0.001935 0.003247 0.005213 0.008010 0.011797 0.016668 0.022627 0.029560 0.037246 0.045391
0.034264 0.030227 0.025340 0.020261 0.015478 0.011297 0.007868 0.005225 0.003304 0.001989 0.001139 0.000621 0.000322 0.000158 0.000074 0.000033 0.000014 0.000006 0.000002 0.000001 0.000000 0.000000 0.000000 0.000000 0.000000 0.000000 0.000000 0.000000 0.000000 0.000000 0.000000 0.000000 0.000000 0.000000 0.000000 0.000000 0.000000 0.000000 0.000000 0.000000 0.000000 0.000000 0.000000 0.000000 0.000000 0.000000 0.000000 0.000000 0.000000 0.000000 0.000000 0.000000 0.000000 0.000000 0.000000 0.000000 0.000000 0.000000 0.000000 0.000000 0.000000 0.000000 0.000000 0.000000 0.000000 0.000000 0.000000 0.000000 0.000000 0.000000 0.000000 0.000000 0.000000 0.000000 0.000000 0.000000 0.000000 0.000000 0.000000 0.000000 0.000000 0.000000 0.000000 0.000000 0.000000 0.000000 0.000000 0.000000 0.000000 0.000000 0.000000 0.000000 0.000000 0.000000 0.000000 0.000000 0.000000 0.000000 0.000000 0.000000 0.000000 0.000000 0.000000 0.000000 0.000000 0.000000 0.000000 0.000000 0.000001 0.000002 0.000006 0.000015 0.000035 0.000077 0.000164 0.000331 0.000639 0.001175 0.002065 0.003465 0.005564 0.008553 0.012600 0.017812 0.024192 0.031627 0.039885 0.048659
0.036834 0.032392 0.027080 0.021606 0.016482 0.012019 0.008367 0.005554 0.003512 0.002114 0.001211 0.000660 0.000342 0.000168 0.000079 0.000035 0.000015 0.000006 0.000002 0.000001 0.000000 0.000000 0.000000 0.000000 0.000000 0.000000 0.000000 0.000000 0.000000 0.000000 0.000000 0.000000 0.000000 0.000000 0.000000 0.000000 0.000000 0.000000 0.000000 0.000000 0.000000 0.000000 0.000000 0.000000 0.000000 0.000000 0.000000 0.000000 0.000000 0.000000 0.000000 0.000000 0.000000 0.000000 0.000000 0.000000 0.000000 0.000000 0.000000 0.000000 0.000000 0.000000 0.000000 0.000000 0.000000 0.000000 0.000000 0.000000 0.000000 0.000000 0.000000 0.000000 0.000000 0.000000 0.000000 0.000000 0.000000 0.000000 0.000000 0.000000 0.000000 0.000000 0.000000 0.000000 0.000000 0.000000 0.000000 0.000000 0.000000 0.000000 0.000000 0.000000 0.000000 0.000000 0.000000 0.000000 0.000000 0.000000 0.000000 0.000000 0.000000 0.000000 0.000000 0.000000 0.000000 0.000000 0.000000 0.000000 0.000001 0.000002 0.000006 0.000016 0.000037 0.000082 0.000175 0.000353 0.000681 0.001252 0.002200 0.003693 0.005931 0.009119 0.013439 0.019005 0.025827 0.033786 0.042643 0.052079