# vtk DataFile Version 2.0
test
ASCII
DATASET STRUCTURED_POINTS
DIMENSIONS 128 128 1
ORIGIN 0 0 0
SPACING 1 1 1
POINT_DATA 16384
SCALARS values float
LOOKUP_TABLE default
0.000654 -0.002285 -0.000794 -0.000550 0.001275 0.002716 0.005141 0.006867 0.009027 0.010324 0.011966 0.013838 0.015632 0.017430 0.018896 0.020766 0.022258 0.023464 0.025157 0.026304 0.027531 0.028751 0.029592 0.030780 0.031653 0.032297 0.033166 0.033771 0.034222 0.034881 0.035269 0.035556 0.036030 0.036245 0.036487 0.036822 0.037026 0.037207 0.037476 0.037641 0.037830 0.038037 0.038219 0.038437 0.038590 0.038635 0.038646 0.038472 0.038016 0.037599 0.037062 0.036108 0.035576 0.036665 0.038364 0.037967 0.036273 0.036670 0.037284 0.036391 0.036758 0.036673 0.036350 0.036651 0.036349 0.036723 0.036533 0.036827 0.036933 0.037180 0.037233 0.037590 0.037801 0.038233 0.038471 0.038897 0.039178 0.039577 0.039856 0.040142 0.040444 0.040667 0.040907 0.041028 0.041199 0.041357 0.041456 0.041532 0.041568 0.041597 0.041605 0.041466 0.041339 0.041121 0.040805 0.040456 0.039904 0.039355 0.038704 0.037908 0.037140 0.036179 0.035187 0.034202 0.033043 0.031891 0.030720 0.029458 0.028224 0.026888 0.025467 0.024090 0.022678 0.021202 0.019731 0.018168 0.016535 0.014936 0.013285 0.011515 0.009611 0.007525 0.005388 0.003467 0.001898 0.000722 0.000092 0.000101
-0.000060 -0.000558 0.000023 0.000594 0.001724 0.002973 0.004523 0.005940 0.007398 0.008629 0.009924 0.011287 0.012637 0.013962 0.015189 0.016468 0.017622 0.018674 0.019792 0.020755 0.021684 0.022564 0.023324 0.024115 0.024793 0.025373 0.025958 0.026446 0.026862 0.027289 0.027623 0.027904 0.028199 0.028416 0.028621 0.028831 0.028999 0.029148 0.029304 0.029428 0.029550 0.029673 0.029788 0.029906 0.029991 0.030023 0.030001 0.029875 0.029622 0.029320 0.028947 0.028505 0.028308 0.028658 0.029159 0.029039 0.028531 0.028518 0.028615 0.028390 0.028415 0.028350 0.028234 0.028259 0.028180 0.028255 0.028232 0.028328 0.028405 0.028521 0.028611 0.028785 0.028953 0.029181 0.029379 0.029620 0.029834 0.030070 0.030274 0.030470 0.030661 0.030822 0.030969 0.031077 0.031184 0.031278 0.031345 0.031390 0.031411 0.031412 0.031385 0.031297 0.031179 0.031006 0.030773 0.030487 0.030112 0.029692 0.029206 0.028646 0.028049 0.027369 0.026646 0.025888 0.025061 0.024206 0.023323 0.022396 0.021449 0.020453 0.019416 0.018370 0.017302 0.016200 0.015078 0.013911 0.012708 0.011491 0.010238 0.008922 0.007539 0.006100 0.004681 0.003399 0.002327 0.001472 0.000786 0.000095
-0.000404 0.000292 0.000666 0.001087 0.001771 0.002652 0.003650 0.004653 0.005633 0.006567 0.007502 0.008453 0.009400 0.010323 0.011211 0.012077 0.012896 0.013672 0.014426 0.015130 0.015793 0.016414 0.016988 0.017531 0.018025 0.018470 0.018881 0.019247 0.019574 0.019873 0.020133 0.020361 0.020567 0.020744 0.020901 0.021045 0.021168 0.021277 0.021374 0.021458 0.021534 0.021604 0.021669 0.021729 0.021772 0.021788 0.021767 0.021693 0.021559 0.021380 0.021164 0.020952 0.020847 0.020905 0.020994 0.020931 0.020773 0.020703 0.020680 0.020624 0.020586 0.020536 0.020479 0.020445 0.020415 0.020414 0.020419 0.020451 0.020497 0.020556 0.020626 0.020719 0.020828 0.020954 0.021085 0.021224 0.021364 0.021505 0.021639 0.021766 0.021886 0.021994 0.022089 0.022168 0.022238 0.022296 0.022340 0.022367 0.022378 0.022370 0.022339 0.022277 0.022185 0.022059 0.021894 0.021688 0.021435 0.021141 0.020805 0.020424 0.020005 0.019543 0.019044 0.018512 0.017944 0.017347 0.016724 0.016074 0.015398 0.014694 0.013965 0.013217 0.012450 0.011661 0.010852 0.010017 0.009161 0.008288 0.007395 0.006479 0.005550 0.004634 0.003780 0.003045 0.002454 0.001974 0.001477 0.000727
0.001361 0.001429 0.001382 0.001444 0.001721 0.002185 0.002756 0.003364 0.003979 0.004592 0.005210 0.005833 0.006452 0.007056 0.007640 0.008203 0.008743 0.009259 0.009754 0.010224 0.010667 0.011085 0.011475 0.011840 0.012177 0.012486 0.012769 0.013026 0.013259 0.013469 0.013656 0.013821 0.013967 0.014095 0.014207 0.014305 0.014390 0.014462 0.014524 0.014577 0.014621 0.014659 0.014692 0.014720 0.014738 0.014744 0.014731 0.014694 0.014629 0.014538 0.014428 0.014320 0.014246 0.014216 0.014193 0.014137 0.014065 0.014018 0.013992 0.013966 0.013937 0.013901 0.013862 0.013830 0.013807 0.013797 0.013798 0.013812 0.013837 0.013871 0.013914 0.013968 0.014032 0.014103 0.014180 0.014260 0.014343 0.014426 0.014508 0.014586 0.014661 0.014729 0.014789 0.014842 0.014888 0.014925 0.014952 0.014968 0.014972 0.014963 0.014938 0.014894 0.014830 0.014744 0.014634 0.014498 0.014334 0.014144 0.013926 0.013681 0.013409 0.013111 0.012788 0.012441 0.012071 0.011680 0.011269 0.010838 0.010388 0.009919 0.009432 0.008930 0.008412 0.007878 0.007329 0.006764 0.006186 0.005599 0.005008 0.004421 0.003859 0.003353 0.002944 0.002668 0.002527 0.002463 0.002339 0.001942
0.002604 0.002548 0.002215 0.001901 0.001765 0.001822 0.002020 0.002299 0.002625 0.002978 0.003348 0.003726 0.004105 0.004475 0.004833 0.005180 0.005513 0.005833 0.006141 0.006434 0.006712 0.006975 0.007221 0.007452 0.007667 0.007866 0.008049 0.008216 0.008369 0.008507 0.008631 0.008742 0.008839 0.008924 0.008997 0.009060 0.009114 0.009159 0.009197 0.009227 0.009252 0.009271 0.009286 0.009296 0.009302 0.009302 0.009295 0.009277 0.009248 0.009206 0.009154 0.009099 0.009049 0.009007 0.008967 0.008923 0.008883 0.008856 0.008840 0.008826 0.008808 0.008784 0.008758 0.008735 0.008718 0.008708 0.008707 0.008714 0.008727 0.008748 0.008773 0.008805 0.008841 0.008881 0.008924 0.008969 0.009016 0.009063 0.009111 0.009157 0.009201 0.009242 0.009279 0.009311 0.009339 0.009361 0.009377 0.009386 0.009386 0.009378 0.009360 0.009331 0.009289 0.009235 0.009166 0.009082 0.008982 0.008866 0.008733 0.008584 0.008419 0.008238 0.008042 0.007830 0.007604 0.007363 0.007109 0.006842 0.006562 0.006269 0.005964 0.005648 0.005321 0.004983 0.004634 0.004277 0.003913 0.003547 0.003190 0.002856 0.002573 0.002378 0.002317 0.002421 0.002689 0.003055 0.003375 0.003450
0.004015 0.003775 0.003163 0.002490 0.001959 0.001642 0.001519 0.001538 0.001646 0.001810 0.002005 0.002215 0.002430 0.002642 0.002849 0.003050 0.003244 0.003431 0.003611 0.003782 0.003946 0.004100 0.004245 0.004382 0.004509 0.004627 0.004736 0.004837 0.004929 0.005013 0.005088 0.005156 0.005215 0.005266 0.005310 0.005347 0.005379 0.005405 0.005426 0.005443 0.005455 0.005464 0.005469 0.005472 0.005472 0.005470 0.005466 0.005457 0.005444 0.005425 0.005401 0.005373 0.005342 0.005312 0.005282 0.005254 0.005233 0.005218 0.005210 0.005202 0.005192 0.005177 0.005161 0.005146 0.005135 0.005128 0.005126 0.005129 0.005136 0.005148 0.005163 0.005181 0.005201 0.005223 0.005247 0.005272 0.005298 0.005324 0.005350 0.005376 0.005401 0.005424 0.005445 0.005464 0.005479 0.005491 0.005499 0.005503 0.005502 0.005495 0.005483 0.005465 0.005440 0.005407 0.005367 0.005318 0.005260 0.005194 0.005118 0.005033 0.004939 0.004835 0.004723 0.004602 0.004472 0.004333 0.004186 0.004032 0.003869 0.003698 0.003520 0.003335 0.003142 0.002944 0.002739 0.002529 0.002318 0.002111 0.001921 0.001768 0.001687 0.001725 0.001934 0.002356 0.002994 0.003780 0.004557 0.005090
0.005396 0.005069 0.004192 0.003169 0.002272 0.001627 0.001241 0.001059 0.001013 0.001048 0.001128 0.001230 0.001342 0.001455 0.001567 0.001676 0.001782 0.001885 0.001983 0.002078 0.002167 0.002252 0.002331 0.002406 0.002476 0.002541 0.002601 0.002656 0.002707 0.002754 0.002796 0.002833 0.002866 0.002895 0.002919 0.002939 0.002956 0.002969 0.002980 0.002989 0.002994 0.002998 0.002999 0.002999 0.002998 0.002995 0.002992 0.002987 0.002981 0.002972 0.002960 0.002946 0.002929 0.002912 0.002896 0.002881 0.002871 0.002864 0.002860 0.002856 0.002850 0.002842 0.002833 0.002824 0.002817 0.002812 0.002810 0.002811 0.002815 0.002822 0.002830 0.002840 0.002851 0.002863 0.002876 0.002890 0.002904 0.002918 0.002932 0.002946 0.002959 0.002972 0.002983 0.002992 0.003000 0.003006 0.003009 0.003010 0.003009 0.003004 0.002996 0.002985 0.002971 0.002953 0.002931 0.002904 0.002873 0.002837 0.002796 0.002751 0.002700 0.002644 0.002584 0.002519 0.002449 0.002374 0.002295 0.002212 0.002124 0.002031 0.001934 0.001834 0.001729 0.001620 0.001509 0.001396 0.001284 0.001182 0.001104 0.001075 0.001136 0.001345 0.001769 0.002462 0.003439 0.004638 0.005894 0.006953
0.007491 0.006566 0.005278 0.003890 0.002656 0.001729 0.001131 0.000798 0.000644 0.000596 0.000605 0.000642 0.000693 0.000748 0.000804 0.000859 0.000913 0.000966 0.001016 0.001064 0.001110 0.001153 0.001193 0.001231 0.001267 0.001299 0.001330 0.001358 0.001384 0.001408 0.001429 0.001448 0.001465 0.001479 0.001491 0.001501 0.001510 0.001516 0.001521 0.001525 0.001528 0.001529 0.001529 0.001528 0.001526 0.001524 0.001522 0.001519 0.001516 0.001511 0.001505 0.001498 0.001490 0.001482 0.001474 0.001468 0.001464 0.001461 0.001460 0.001458 0.001455 0.001450 0.001445 0.001440 0.001436 0.001433 0.001432 0.001432 0.001434 0.001437 0.001441 0.001447 0.001453 0.001459 0.001466 0.001474 0.001481 0.001488 0.001496 0.001503 0.001509 0.001516 0.001521 0.001526 0.001529 0.001532 0.001533 0.001532 0.001531 0.001528 0.001523 0.001517 0.001510 0.001500 0.001489 0.001475 0.001459 0.001441 0.001421 0.001398 0.001372 0.001344 0.001314 0.001281 0.001246 0.001209 0.001169 0.001127 0.001083 0.001036 0.000987 0.000937 0.000884 0.000829 0.000773 0.000718 0.000667 0.000628 0.000620 0.000671 0.000832 0.001172 0.001772 0.002705 0.004001 0.005607 0.007360 0.009002
0.009251 0.008018 0.006367 0.004623 0.003078 0.001905 0.001132 0.000684 0.000453 0.000350 0.000317 0.000318 0.000335 0.000358 0.000384 0.000410 0.000435 0.000460 0.000484 0.000506 0.000528 0.000548 0.000567 0.000585 0.000602 0.000617 0.000631 0.000645 0.000657 0.000668 0.000678 0.000687 0.000695 0.000701 0.000707 0.000711 0.000715 0.000718 0.000720 0.000722 0.000723 0.000723 0.000723 0.000722 0.000721 0.000719 0.000718 0.000717 0.000715 0.000713 0.000710 0.000706 0.000702 0.000698 0.000695 0.000693 0.000692 0.000691 0.000691 0.000690 0.000688 0.000686 0.000684 0.000681 0.000679 0.000677 0.000676 0.000676 0.000677 0.000678 0.000680 0.000683 0.000686 0.000690 0.000693 0.000697 0.000701 0.000704 0.000708 0.000711 0.000715 0.000717 0.000720 0.000722 0.000724 0.000724 0.000725 0.000724 0.000723 0.000721 0.000719 0.000716 0.000712 0.000707 0.000702 0.000695 0.000688 0.000679 0.000670 0.000659 0.000647 0.000634 0.000620 0.000604 0.000588 0.000570 0.000552 0.000532 0.000512 0.000490 0.000467 0.000443 0.000419 0.000393 0.000368 0.000344 0.000327 0.000325 0.000358 0.000463 0.000696 0.001139 0.001891 0.003044 0.004645 0.006652 0.008900 0.011115
0.011121 0.009498 0.007457 0.005360 0.003521 0.002127 0.001203 0.000659 0.000370 0.000231 0.000172 0.000154 0.000153 0.000160 0.000170 0.000181 0.000192 0.000203 0.000213 0.000223 0.000233 0.000241 0.000250 0.000257 0.000265 0.000271 0.000277 0.000283 0.000288 0.000293 0.000298 0.000302 0.000305 0.000308 0.000310 0.000312 0.000313 0.000315 0.000315 0.000316 0.000316 0.000316 0.000316 0.000315 0.000315 0.000314 0.000314 0.000313 0.000312 0.000311 0.000309 0.000308 0.000306 0.000304 0.000303 0.000302 0.000302 0.000302 0.000302 0.000302 0.000301 0.000300 0.000299 0.000298 0.000296 0.000295 0.000295 0.000295 0.000295 0.000296 0.000297 0.000298 0.000300 0.000301 0.000303 0.000305 0.000307 0.000308 0.000310 0.000312 0.000313 0.000314 0.000316 0.000316 0.000317 0.000317 0.000317 0.000317 0.000316 0.000315 0.000314 0.000312 0.000311 0.000309 0.000306 0.000303 0.000300 0.000296 0.000292 0.000287 0.000282 0.000276 0.000270 0.000264 0.000256 0.000249 0.000241 0.000232 0.000224 0.000214 0.000204 0.000194 0.000183 0.000173 0.000163 0.000155 0.000155 0.000173 0.000232 0.000373 0.000662 0.001194 0.002085 0.003445 0.005341 0.007740 0.010481 0.013288
0.013160 0.011017 0.008554 0.006104 0.003981 0.002378 0.001315 0.000685 0.000348 0.000182 0.000107 0.000077 0.000068 0.000067 0.000070 0.000074 0.000078 0.000083 0.000087 0.000091 0.000095 0.000098 0.000101 0.000104 0.000107 0.000110 0.000112 0.000115 0.000117 0.000119 0.000121 0.000122 0.000123 0.000125 0.000125 0.000126 0.000127 0.000127 0.000127 0.000128 0.000128 0.000128 0.000128 0.000127 0.000127 0.000127 0.000126 0.000126 0.000126 0.000125 0.000124 0.000124 0.000123 0.000122 0.000122 0.000122 0.000122 0.000122 0.000122 0.000122 0.000122 0.000121 0.000121 0.000120 0.000119 0.000119 0.000119 0.000118 0.000119 0.000119 0.000119 0.000120 0.000121 0.000121 0.000122 0.000123 0.000124 0.000124 0.000125 0.000126 0.000127 0.000127 0.000128 0.000128 0.000128 0.000128 0.000128 0.000128 0.000128 0.000127 0.000126 0.000126 0.000125 0.000124 0.000123 0.000122 0.000121 0.000119 0.000118 0.000116 0.000113 0.000111 0.000109 0.000106 0.000103 0.000100 0.000097 0.000094 0.000090 0.000086 0.000082 0.000078 0.000074 0.000070 0.000067 0.000067 0.000076 0.000106 0.000182 0.000350 0.000687 0.001300 0.002323 0.003884 0.006066 0.008845 0.012050 0.015382
0.015058 0.012486 0.009639 0.006854 0.004457 0.002650 0.001451 0.000741 0.000358 0.000169 0.000082 0.000045 0.000031 0.000027 0.000027 0.000028 0.000030 0.000031 0.000033 0.000034 0.000035 0.000037 0.000038 0.000039 0.000040 0.000041 0.000042 0.000043 0.000044 0.000044 0.000045 0.000045 0.000046 0.000046 0.000047 0.000047 0.000047 0.000047 0.000047 0.000047 0.000047 0.000047 0.000047 0.000047 0.000047 0.000047 0.000047 0.000047 0.000047 0.000046 0.000046 0.000046 0.000045 0.000045 0.000045 0.000045 0.000045 0.000045 0.000045 0.000045 0.000045 0.000045 0.000045 0.000045 0.000044 0.000044 0.000044 0.000044 0.000044 0.000044 0.000044 0.000044 0.000045 0.000045 0.000045 0.000046 0.000046 0.000046 0.000047 0.000047 0.000047 0.000047 0.000048 0.000048 0.000048 0.000048 0.000048 0.000048 0.000047 0.000047 0.000047 0.000047 0.000046 0.000046 0.000046 0.000045 0.000045 0.000044 0.000044 0.000043 0.000042 0.000041 0.000040 0.000039 0.000038 0.000037 0.000036 0.000035 0.000033 0.000032 0.000031 0.000029 0.000028 0.000027 0.000027 0.000030 0.000044 0.000081 0.000169 0.000362 0.000743 0.001434 0.002586 0.004346 0.006811 0.009958 0.013598 0.017383
0.016728 0.013876 0.010706 0.007608 0.004945 0.002937 0.001602 0.000811 0.000385 0.000173 0.000075 0.000033 0.000017 0.000011 0.000010 0.000010 0.000010 0.000011 0.000011 0.000012 0.000012 0.000013 0.000013 0.000013 0.000014 0.000014 0.000014 0.000015 0.000015 0.000015 0.000015 0.000016 0.000016 0.000016 0.000016 0.000016 0.000016 0.000016 0.000016 0.000016 0.000016 0.000016 0.000016 0.000016 0.000016 0.000016 0.000016 0.000016 0.000016 0.000016 0.000016 0.000016 0.000015 0.000015 0.000015 0.000015 0.000015 0.000015 0.000015 0.000015 0.000015 0.000015 0.000015 0.000015 0.000015 0.000015 0.000015 0.000015 0.000015 0.000015 0.000015 0.000015 0.000015 0.000015 0.000015 0.000016 0.000016 0.000016 0.000016 0.000016 0.000016 0.000016 0.000016 0.000016 0.000016 0.000016 0.000016 0.000016 0.000016 0.000016 0.000016 0.000016 0.000016 0.000016 0.000016 0.000015 0.000015 0.000015 0.000015 0.000015 0.000014 0.000014 0.000014 0.000013 0.000013 0.000013 0.000012 0.000012 0.000011 0.000011 0.000010 0.000010 0.000010 0.000010 0.000011 0.000016 0.000032 0.000075 0.000174 0.000389 0.000813 0.001583 0.002864 0.004825 0.007573 0.011087 0.015166 0.019444
0.018346 0.015237 0.011768 0.008372 0.005447 0.003236 0.001764 0.000890 0.000419 0.000185 0.000077 0.000031 0.000012 0.000006 0.000004 0.000003 0.000003 0.000003 0.000004 0.000004 0.000004 0.000004 0.000004 0.000004 0.000004 0.000004 0.000004 0.000005 0.000005 0.000005 0.000005 0.000005 0.000005 0.000005 0.000005 0.000005 0.000005 0.000005 0.000005 0.000005 0.000005 0.000005 0.000005 0.000005 0.000005 0.000005 0.000005 0.000005 0.000005 0.000005 0.000005 0.000005 0.000005 0.000005 0.000005 0.000005 0.000005 0.000005 0.000005 0.000005 0.000005 0.000005 0.000005 0.000005 0.000005 0.000005 0.000005 0.000005 0.000005 0.000005 0.000005 0.000005 0.000005 0.000005 0.000005 0.000005 0.000005 0.000005 0.000005 0.000005 0.000005 0.000005 0.000005 0.000005 0.000005 0.000005 0.000005 0.000005 0.000005 0.000005 0.000005 0.000005 0.000005 0.000005 0.000005 0.000005 0.000005 0.000005 0.000005 0.000005 0.000004 0.000004 0.000004 0.000004 0.000004 0.000004 0.000004 0.000004 0.000004 0.000003 0.000003 0.000003 0.000003 0.000004 0.000006 0.000012 0.000030 0.000077 0.000187 0.000424 0.000892 0.001740 0.003155 0.005319 0.008354 0.012239 0.016759 0.021521
0.020002 0.016613 0.012846 0.009152 0.005962 0.003546 0.001933 0.000974 0.000457 0.000200 0.000082 0.000031 0.000011 0.000004 0.000002 0.000001 0.000001 0.000001 0.000001 0.000001 0.000001 0.000001 0.000001 0.000001 0.000001 0.000001 0.000001 0.000001 0.000001 0.000001 0.000001 0.000001 0.000001 0.000001 0.000001 0.000001 0.000001 0.000001 0.000001 0.000001 0.000001 0.000001 0.000001 0.000001 0.000001 0.000001 0.000001 0.000001 0.000001 0.000001 0.000001 0.000001 0.000001 0.000001 0.000001 0.000001 0.000001 0.000001 0.000001 0.000001 0.000001 0.000001 0.000001 0.000001 0.000001 0.000001 0.000001 0.000001 0.000001 0.000001 0.000001 0.000001 0.000001 0.000001 0.000001 0.000001 0.000001 0.000001 0.000001 0.000001 0.000001 0.000001 0.000001 0.000001 0.000001 0.000001 0.000001 0.000001 0.000001 0.000001 0.000001 0.000001 0.000001 0.000001 0.000001 0.000001 0.000001 0.000001 0.000001 0.000001 0.000001 0.000001 0.000001 0.000001 0.000001 0.000001 0.000001 0.000001 0.000001 0.000001 0.000001 0.000001 0.000001 0.000002 0.000004 0.000011 0.000031 0.000083 0.000203 0.000463 0.000975 0.001904 0.003455 0.005829 0.009159 0.013426 0.018396 0.023649
0.021653 0.018027 0.013958 0.009956 0.006494 0.003866 0.002109 0.001062 0.000497 0.000217 0.000088 0.000033 0.000012 0.000004 0.000001 0.000001 0.000000 0.000000 0.000000 0.000000 0.000000 0.000000 0.000000 0.000000 0.000000 0.000000 0.000000 0.000000 0.000000 0.000000 0.000000 0.000000 0.000000 0.000000 0.000000 0.000000 0.000000 0.000000 0.000000 0.000000 0.000000 0.000000 0.000000 0.000000 0.000000 0.000000 0.000000 0.000000 0.000000 0.000000 0.000000 0.000000 0.000000 0.000000 0.000000 0.000000 0.000000 0.000000 0.000000 0.000000 0.000000 0.000000 0.000000 0.000000 0.000000 0.000000 0.000000 0.000000 0.000000 0.000000 0.000000 0.000000 0.000000 0.000000 0.000000 0.000000 0.000000 0.000000 0.000000 0.000000 0.000000 0.000000 0.000000 0.000000 0.000000 0.000000 0.000000 0.000000 0.000000 0.000000 0.000000 0.000000 0.000000 0.000000 0.000000 0.000000 0.000000 0.000000 0.000000 0.000000 0.000000 0.000000 0.000000 0.000000 0.000000 0.000000 0.000000 0.000000 0.000000 0.000000 0.000000 0.000000 0.000000 0.000001 0.000004 0.000012 0.000033 0.000089 0.000221 0.000503 0.001061 0.002074 0.003765 0.006357 0.009994 0.014660 0.020106 0.025871
0.023496 0.019549 0.015128 0.010791 0.007042 0.004195 0.002289 0.001153 0.000539 0.000235 0.000095 0.000036 0.000012 0.000004 0.000001 0.000000 0.000000 0.000000 0.000000 0.000000 0.000000 0.000000 0.000000 0.000000 0.000000 0.000000 0.000000 0.000000 0.000000 0.000000 0.000000 0.000000 0.000000 0.000000 0.000000 0.000000 0.000000 0.000000 0.000000 0.000000 0.000000 0.000000 0.000000 0.000000 0.000000 0.000000 0.000000 0.000000 0.000000 0.000000 0.000000 0.000000 0.000000 0.000000 0.000000 0.000000 0.000000 0.000000 0.000000 0.000000 0.000000 0.000000 0.000000 0.000000 0.000000 0.000000 0.000000 0.000000 0.000000 0.000000 0.000000 0.000000 0.000000 0.000000 0.000000 0.000000 0.000000 0.000000 0.000000 0.000000 0.000000 0.000000 0.000000 0.000000 0.000000 0.000000 0.000000 0.000000 0.000000 0.000000 0.000000 0.000000 0.000000 0.000000 0.000000 0.000000 0.000000 0.000000 0.000000 0.000000 0.000000 0.000000 0.000000 0.000000 0.000000 0.000000 0.000000 0.000000 0.000000 0.000000 0.000000 0.000000 0.000000 0.000001 0.000004 0.000012 0.000036 0.000097 0.000239 0.000545 0.001150 0.002250 0.004086 0.006903 0.010863 0.015956 0.021923 0.028277
0.025702 0.021221 0.016364 0.011657 0.007606 0.004533 0.002475 0.001246 0.000582 0.000253 0.000103 0.000039 0.000013 0.000004 0.000001 0.000000 0.000000 0.000000 0.000000 0.000000 0.000000 0.000000 0.000000 0.000000 0.000000 0.000000 0.000000 0.000000 0.000000 0.000000 0.000000 0.000000 0.000000 0.000000 0.000000 0.000000 0.000000 0.000000 0.000000 0.000000 0.000000 0.000000 0.000000 0.000000 0.000000 0.000000 0.000000 0.000000 0.000000 0.000000 0.000000 0.000000 0.000000 0.000000 0.000000 0.000000 0.000000 0.000000 0.000000 0.000000 0.000000 0.000000 0.000000 0.000000 0.000000 0.000000 0.000000 0.000000 0.000000 0.000000 0.000000 0.000000 0.000000 0.000000 0.000000 0.000000 0.000000 0.000000 0.000000 0.000000 0.000000 0.000000 0.000000 0.000000 0.000000 0.000000 0.000000 0.000000 0.000000 0.000000 0.000000 0.000000 0.000000 0.000000 0.000000 0.000000 0.000000 0.000000 0.000000 0.000000 0.000000 0.000000 0.000000 0.000000 0.000000 0.000000 0.000000 0.000000 0.000000 0.000000 0.000000 0.000000 0.000000 0.000001 0.000004 0.000013 0.000039 0.000104 0.000258 0.000588 0.001242 0.002430 0.004417 0.007468 0.011767 0.017315 0.023858 0.030915
0.027943 0.022953 0.017643 0.012548 0.008183 0.004878 0.002665 0.001343 0.000627 0.000273 0.000110 0.000041 0.000014 0.000005 0.000001 0.000000 0.000000 0.000000 0.000000 0.000000 0.000000 0.000000 0.000000 0.000000 0.000000 0.000000 0.000000 0.000000 0.000000 0.000000 0.000000 0.000000 0.000000 0.000000 0.000000 0.000000 0.000000 0.000000 0.000000 0.000000 0.000000 0.000000 0.000000 0.000000 0.000000 0.000000 0.000000 0.000000 0.000000 0.000000 0.000000 0.000000 0.000000 0.000000 0.000000 0.000000 0.000000 0.000000 0.000000 0.000000 0.000000 0.000000 0.000000 0.000000 0.000000 0.000000 0.000000 0.000000 0.000000 0.000000 0.000000 0.000000 0.000000 0.000000 0.000000 0.000000 0.000000 0.000000 0.000000 0.000000 0.000000 0.000000 0.000000 0.000000 0.000000 0.000000 0.000000 0.000000 0.000000 0.000000 0.000000 0.000000 0.000000 0.000000 0.000000 0.000000 0.000000 0.000000 0.000000 0.000000 0.000000 0.000000 0.000000 0.000000 0.000000 0.000000 0.000000 0.000000 0.000000 0.000000 0.000000 0.000000 0.000000 0.000001 0.000004 0.000014 0.000042 0.000112 0.000277 0.000633 0.001337 0.002617 0.004758 0.008052 0.012702 0.018723 0.025858 0.033608
0.030179 0.024707 0.018946 0.013456 0.008772 0.005231 0.002860 0.001442 0.000674 0.000293 0.000118 0.000044 0.000015 0.000005 0.000001 0.000000 0.000000 0.000000 0.000000 0.000000 0.000000 0.000000 0.000000 0.000000 0.000000 0.000000 0.000000 0.000000 0.000000 0.000000 0.000000 0.000000 0.000000 0.000000 0.000000 0.000000 0.000000 0.000000 0.000000 0.000000 0.000000 0.000000 0.000000 0.000000 0.000000 0.000000 0.000000 0.000000 0.000000 0.000000 0.000000 0.000000 0.000000 0.000000 0.000000 0.000000 0.000000 0.000000 0.000000 0.000000 0.000000 0.000000 0.000000 0.000000 0.000000 0.000000 0.000000 0.000000 0.000000 0.000000 0.000000 0.000000 0.000000 0.000000 0.000000 0.000000 0.000000 0.000000 0.000000 0.000000 0.000000 0.000000 0.000000 0.000000 0.000000 0.000000 0.000000 0.000000 0.000000 0.000000 0.000000 0.000000 0.000000 0.000000 0.000000 0.000000 0.000000 0.000000 0.000000 0.000000 0.000000 0.000000 0.000000 0.000000 0.000000 0.000000 0.000000 0.000000 0.000000 0.000000 0.000000 0.000000 0.000000 0.000001 0.000005 0.000015 0.000045 0.000120 0.000298 0.000679 0.001435 0.002809 0.005111 0.008654 0.013667 0.020173 0.027909 0.036348
0.032394 0.026469 0.020266 0.014381 0.009374 0.005593 0.003061 0.001544 0.000722 0.000314 0.000127 0.000047 0.000016 0.000005 0.000001 0.000000 0.000000 0.000000 0.000000 0.000000 0.000000 0.000000 0.000000 0.000000 0.000000 0.000000 0.000000 0.000000 0.000000 0.000000 0.000000 0.000000 0.000000 0.000000 0.000000 0.000000 0.000000 0.000000 0.000000 0.000000 0.000000 0.000000 0.000000 0.000000 0.000000 0.000000 0.000000 0.000000 0.000000 0.000000 0.000000 0.000000 0.000000 0.000000 0.000000 0.000000 0.000000 0.000000 0.000000 0.000000 0.000000 0.000000 0.000000 0.000000 0.000000 0.000000 0.000000 0.000000 0.000000 0.000000 0.000000 0.000000 0.000000 0.000000 0.000000 0.000000 0.000000 0.000000 0.000000 0.000000 0.000000 0.000000 0.000000 0.000000 0.000000 0.000000 0.000000 0.000000 0.000000 0.000000 0.000000 0.000000 0.000000 0.000000 0.000000 0.000000 0.000000 0.000000 0.000000 0.000000 0.000000 0.000000 0.000000 0.000000 0.000000 0.000000 0.000000 0.000000 0.000000 0.000000 0.000000 0.000000 0.000000 0.000001 0.000005 0.000016 0.000048 0.000129 0.000319 0.000727 0.001536 0.003009 0.005475 0.009277 0.014661 0.021662 0.029997 0.039094
0.034589 0.028249 0.021612 0.015328 0.009992 0.005966 0.003268 0.001650 0.000772 0.000335 0.000135 0.000050 0.000017 0.000005 0.000002 0.000000 0.000000 0.000000 0.000000 0.000000 0.000000 0.000000 0.000000 0.000000 0.000000 0.000000 0.000000 0.000000 0.000000 0.000000 0.000000 0.000000 0.000000 0.000000 0.000000 0.000000 0.000000 0.000000 0.000000 0.000000 0.000000 0.000000 0.000000 0.000000 0.000000 0.000000 0.000000 0.000000 0.000000 0.000000 0.000000 0.000000 0.000000 0.000000 0.000000 0.000000 0.000000 0.000000 0.000000 0.000000 0.000000 0.000000 0.000000 0.000000 0.000000 0.000000 0.000000 0.000000 0.000000 0.000000 0.000000 0.000000 0.000000 0.000000 0.000000 0.000000 0.000000 0.000000 0.000000 0.000000 0.000000 0.000000 0.000000 0.000000 0.000000 0.000000 0.000000 0.000000 0.000000 0.000000 0.000000 0.000000 0.000000 0.000000 0.000000 0.000000 0.000000 0.000000 0.000000 0.000000 0.000000 0.000000 0.000000 0.000000 0.000000 0.000000 0.000000 0.000000 0.000000 0.000000 0.000000 0.000000 0.000000 0.000002 0.000005 0.000017 0.000051 0.000138 0.000340 0.000777 0.001642 0.003216 0.005854 0.009922 0.015690 0.023199 0.032150 0.041932
0.036829 0.030080 0.023003 0.016308 0.010632 0.006351 0.003482 0.001760 0.000824 0.000358 0.000144 0.000054 0.000018 0.000006 0.000002 0.000000 0.000000 0.000000 0.000000 0.000000 0.000000 0.000000 0.000000 0.000000 0.000000 0.000000 0.000000 0.000000 0.000000 0.000000 0.000000 0.000000 0.000000 0.000000 0.000000 0.000000 0.000000 0.000000 0.000000 0.000000 0.000000 0.000000 0.000000 0.000000 0.000000 0.000000 0.000000 0.000000 0.000000 0.000000 0.000000 0.000000 0.000000 0.000000 0.000000 0.000000 0.000000 0.000000 0.000000 0.000000 0.000000 0.000000 0.000000 0.000000 0.000000 0.000000 0.000000 0.000000 0.000000 0.000000 0.000000 0.000000 0.000000 0.000000 0.000000 0.000000 0.000000 0.000000 0.000000 0.000000 0.000000 0.000000 0.000000 0.000000 0.000000 0.000000 0.000000 0.000000 0.000000 0.000000 0.000000 0.000000 0.000000 0.000000 0.000000 0.000000 0.000000 0.000000 0.000000 0.000000 0.000000 0.000000 0.000000 0.000000 0.000000 0.000000 0.000000 0.000000 0.000000 0.000000 0.000000 0.000000 0.000000 0.000002 0.000006 0.000019 0.000055 0.000147 0.000363 0.000829 0.001752 0.003432 0.006249 0.010595 0.016761 0.024795 0.034383 0.044871
0.039230 0.032015 0.024461 0.017332 0.011299 0.006753 0.003705 0.001874 0.000878 0.000382 0.000154 0.000057 0.000020 0.000006 0.000002 0.000000 0.000000 0.000000 0.000000 0.000000 0.000000 0.000000 0.000000 0.000000 0.000000 0.000000 0.000000 0.000000 0.000000 0.000000 0.000000 0.000000 0.000000 0.000000 0.000000 0.000000 0.000000 0.000000 0.000000 0.000000 0.000000 0.000000 0.000000 0.000000 0.000000 0.000000 0.000000 0.000000 0.000000 0.000000 0.000000 0.000000 0.000000 0.000000 0.000000 0.000000 0.000000 0.000000 0.000000 0.000000 0.000000 0.000000 0.000000 0.000000 0.000000 0.000000 0.000000 0.000000 0.000000 0.000000 0.000000 0.000000 0.000000 0.000000 0.000000 0.000000 0.000000 0.000000 0.000000 0.000000 0.000000 0.000000 0.000000 0.000000 0.000000 0.000000 0.000000 0.000000 0.000000 0.000000 0.000000 0.000000 0.000000 0.000000 0.000000 0.000000 0.000000 0.000000 0.000000 0.000000 0.000000 0.000000 0.000000 0.000000 0.000000 0.000000 0.000000 0.000000 0.000000 0.000000 0.000000 0.000000 0.000000 0.000002 0.000006 0.000020 0.000058 0.000156 0.000387 0.000883 0.001867 0.003658 0.006661 0.011297 0.017880 0.026463 0.036716 0.047946
0.041828 0.034077 0.026001 0.018408 0.011997 0.007172 0.003938 0.001994 0.000934 0.000406 0.000164 0.000061 0.000021 0.000007 0.000002 0.000000 0.000000 0.000000 0.000000 0.000000 0.000000 0.000000 0.000000 0.000000 0.000000 0.000000 0.000000 0.000000 0.000000 0.000000 0.000000 0.000000 0.000000 0.000000 0.000000 0.000000 0.000000 0.000000 0.000000 0.000000 0.000000 0.000000 0.000000 0.000000 0.000000 0.000000 0.000000 0.000000 0.000000 0.000000 0.000000 0.000000 0.000000 0.000000 0.000000 0.000000 0.000000 0.000000 0.000000 0.000000 0.000000 0.000000 0.000000 0.000000 0.000000 0.000000 0.000000 0.000000 0.000000 0.000000 0.000000 0.000000 0.000000 0.000000 0.000000 0.000000 0.000000 0.000000 0.000000 0.000000 0.000000 0.000000 0.000000 0.000000 0.000000 0.000000 0.000000 0.000000 0.000000 0.000000 0.000000 0.000000 0.000000 0.000000 0.000000 0.000000 0.000000 0.000000 0.000000 0.000000 0.000000 0.000000 0.000000 0.000000 0.000000 0.000000 0.000000 0.000000 0.000000 0.000000 0.000000 0.000000 0.000000 0.000002 0.000007 0.000021 0.000062 0.000166 0.000412 0.000940 0.001987 0.003894 0.007093 0.012033 0.019052 0.028210 0.039163 0.051182