# vtk DataFile Version 2.0
test
ASCII
DATASET STRUCTURED_POINTS
DIMENSIONS 128 128 1
ORIGIN 0 0 0
SPACING 1 1 1
POINT_DATA 16384
SCALARS values float
LOOKUP_TABLE default
0.000244 0.000547 -0.000104 0.000491 0.000945 0.002415 0.003218 0.004699 0.005171 0.006315 0.007510 0.009018 0.010364 0.011568 0.013343 0.014590 0.015870 0.017466 0.018588 0.019903 0.021082 0.022088 0.023383 0.024243 0.025163 0.026221 0.026948 0.027800 0.028707 0.029375 0.030093 0.030906 0.031471 0.032161 0.032852 0.033391 0.033930 0.034503 0.034855 0.035155 0.035439 0.035607 0.035645 0.035660 0.035589 0.035324 0.034858 0.034276 0.033656 0.032841 0.031826 0.031238 0.032029 0.033623 0.033496 0.031688 0.031790 0.032846 0.032198 0.032503 0.032804 0.032612 0.033361 0.033255 0.033815 0.034105 0.034607 0.035029 0.035486 0.035910 0.036496 0.036958 0.037565 0.038065 0.038700 0.039155 0.039686 0.040106 0.040601 0.041033 0.041373 0.041741 0.042065 0.042433 0.042709 0.042942 0.043209 0.043378 0.043536 0.043563 0.043505 0.043448 0.043200 0.042908 0.042490 0.041952 0.041424 0.040705 0.039941 0.039168 0.038239 0.037341 0.036353 0.035238 0.034182 0.033043 0.031850 0.030627 0.029233 0.027811 0.026399 0.024869 0.023270 0.021623 0.019853 0.018053 0.016224 0.014282 0.012270 0.010174 0.007959 0.005808 0.003910 0.002319 0.001084 0.000307 -0.000007 0.000062
-0.001495 0.000015 0.000552 0.001148 0.001777 0.002710 0.003564 0.004565 0.005359 0.006331 0.007386 0.008559 0.009721 0.010872 0.012150 0.013307 0.014452 0.015643 0.016706 0.017771 0.018772 0.019705 0.020662 0.021487 0.022287 0.023083 0.023776 0.024465 0.025138 0.025728 0.026301 0.026869 0.027359 0.027852 0.028322 0.028732 0.029114 0.029472 0.029744 0.029966 0.030147 0.030261 0.030303 0.030293 0.030207 0.030009 0.029693 0.029287 0.028820 0.028283 0.027754 0.027493 0.027744 0.028216 0.028158 0.027619 0.027544 0.027766 0.027649 0.027730 0.027838 0.027872 0.028126 0.028230 0.028494 0.028731 0.029033 0.029332 0.029650 0.029976 0.030352 0.030717 0.031120 0.031509 0.031923 0.032291 0.032662 0.033000 0.033342 0.033655 0.033930 0.034197 0.034444 0.034687 0.034893 0.035072 0.035237 0.035357 0.035440 0.035455 0.035409 0.035318 0.035135 0.034887 0.034559 0.034153 0.033698 0.033153 0.032552 0.031906 0.031188 0.030439 0.029633 0.028766 0.027883 0.026956 0.025984 0.024968 0.023876 0.022743 0.021581 0.020359 0.019084 0.017759 0.016372 0.014944 0.013477 0.011951 0.010376 0.008759 0.007120 0.005544 0.004123 0.002908 0.001922 0.001166 0.000562 -0.000071
-0.000366 0.000465 0.001061 0.001590 0.002148 0.002801 0.003511 0.004268 0.005033 0.005857 0.006746 0.007689 0.008652 0.009627 0.010617 0.011583 0.012529 0.013457 0.014342 0.015193 0.016002 0.016771 0.017507 0.018190 0.018834 0.019443 0.020007 0.020538 0.021038 0.021497 0.021925 0.022327 0.022694 0.023038 0.023358 0.023646 0.023907 0.024140 0.024333 0.024491 0.024616 0.024700 0.024741 0.024737 0.024679 0.024552 0.024354 0.024093 0.023785 0.023456 0.023167 0.023020 0.023059 0.023161 0.023126 0.022971 0.022893 0.022895 0.022875 0.022885 0.022917 0.022963 0.023053 0.023149 0.023280 0.023433 0.023611 0.023803 0.024010 0.024232 0.024474 0.024728 0.024996 0.025269 0.025545 0.025812 0.026071 0.026319 0.026558 0.026781 0.026985 0.027176 0.027353 0.027517 0.027662 0.027786 0.027890 0.027967 0.028011 0.028014 0.027974 0.027888 0.027749 0.027556 0.027306 0.027002 0.026645 0.026233 0.025771 0.025264 0.024711 0.024117 0.023482 0.022808 0.022104 0.021367 0.020595 0.019785 0.018934 0.018047 0.017128 0.016172 0.015178 0.014147 0.013079 0.011980 0.010851 0.009694 0.008515 0.007328 0.006160 0.005055 0.004060 0.003200 0.002471 0.001829 0.001166 0.000305
0.000002 0.000976 0.001562 0.001973 0.002357 0.002788 0.003282 0.003835 0.004438 0.005093 0.005796 0.006537 0.007299 0.008071 0.008843 0.009602 0.010342 0.011060 0.011749 0.012408 0.013034 0.013627 0.014187 0.014711 0.015201 0.015658 0.016082 0.016475 0.016838 0.017171 0.017477 0.017757 0.018014 0.018248 0.018463 0.018656 0.018830 0.018984 0.019116 0.019227 0.019316 0.019381 0.019419 0.019428 0.019400 0.019331 0.019217 0.019063 0.018879 0.018687 0.018521 0.018422 0.018397 0.018401 0.018373 0.018313 0.018261 0.018231 0.018208 0.018197 0.018199 0.018215 0.018249 0.018297 0.018363 0.018446 0.018545 0.018658 0.018784 0.018923 0.019075 0.019238 0.019412 0.019592 0.019775 0.019956 0.020134 0.020305 0.020470 0.020625 0.020769 0.020901 0.021023 0.021134 0.021230 0.021312 0.021377 0.021423 0.021445 0.021441 0.021406 0.021338 0.021233 0.021090 0.020906 0.020681 0.020416 0.020111 0.019767 0.019385 0.018968 0.018517 0.018034 0.017520 0.016979 0.016412 0.015818 0.015196 0.014545 0.013869 0.013167 0.012439 0.011686 0.010909 0.010109 0.009290 0.008457 0.007618 0.006780 0.005962 0.005186 0.004480 0.003866 0.003349 0.002903 0.002465 0.001923 0.001128
0.000898 0.001732 0.002172 0.002404 0.002572 0.002766 0.003024 0.003353 0.003752 0.004211 0.004721 0.005268 0.005837 0.006417 0.006996 0.007566 0.008121 0.008657 0.009171 0.009661 0.010126 0.010565 0.010978 0.011363 0.011722 0.012054 0.012360 0.012642 0.012899 0.013134 0.013346 0.013539 0.013713 0.013871 0.014013 0.014141 0.014256 0.014357 0.014446 0.014522 0.014585 0.014634 0.014667 0.014682 0.014674 0.014641 0.014580 0.014494 0.014390 0.014280 0.014183 0.014114 0.014077 0.014057 0.014033 0.014000 0.013966 0.013937 0.013913 0.013895 0.013884 0.013882 0.013889 0.013907 0.013935 0.013975 0.014026 0.014088 0.014160 0.014242 0.014334 0.014436 0.014544 0.014659 0.014777 0.014896 0.015014 0.015129 0.015240 0.015344 0.015442 0.015532 0.015613 0.015686 0.015748 0.015800 0.015840 0.015866 0.015877 0.015868 0.015840 0.015788 0.015712 0.015608 0.015476 0.015315 0.015125 0.014905 0.014656 0.014379 0.014075 0.013744 0.013389 0.013010 0.012610 0.012189 0.011748 0.011287 0.010805 0.010305 0.009787 0.009251 0.008699 0.008131 0.007552 0.006966 0.006379 0.005803 0.005251 0.004741 0.004293 0.003929 0.003660 0.003476 0.003340 0.003177 0.002873 0.002274
0.001808 0.002643 0.002922 0.002931 0.002856 0.002799 0.002810 0.002908 0.003092 0.003352 0.003674 0.004040 0.004435 0.004844 0.005257 0.005666 0.006065 0.006450 0.006819 0.007170 0.007502 0.007816 0.008110 0.008384 0.008638 0.008873 0.009089 0.009286 0.009465 0.009627 0.009773 0.009905 0.010022 0.010128 0.010222 0.010307 0.010382 0.010449 0.010508 0.010558 0.010602 0.010636 0.010661 0.010675 0.010675 0.010660 0.010629 0.010582 0.010524 0.010461 0.010402 0.010355 0.010322 0.010298 0.010277 0.010255 0.010231 0.010207 0.010186 0.010168 0.010154 0.010145 0.010142 0.010144 0.010154 0.010171 0.010195 0.010227 0.010267 0.010315 0.010369 0.010430 0.010497 0.010568 0.010643 0.010719 0.010795 0.010870 0.010943 0.011011 0.011076 0.011135 0.011188 0.011235 0.011275 0.011307 0.011331 0.011345 0.011349 0.011340 0.011317 0.011279 0.011225 0.011152 0.011060 0.010947 0.010814 0.010661 0.010486 0.010292 0.010077 0.009844 0.009592 0.009323 0.009038 0.008738 0.008423 0.008094 0.007750 0.007393 0.007024 0.006643 0.006252 0.005853 0.005450 0.005050 0.004662 0.004298 0.003977 0.003720 0.003548 0.003480 0.003522 0.003661 0.003854 0.004020 0.004046 0.003782
0.003587 0.003865 0.003815 0.003558 0.003224 0.002913 0.002681 0.002553 0.002533 0.002608 0.002760 0.002969 0.003216 0.003484 0.003762 0.004040 0.004314 0.004579 0.004833 0.005076 0.005305 0.005521 0.005724 0.005913 0.006088 0.006249 0.006397 0.006532 0.006654 0.006765 0.006864 0.006953 0.007032 0.007103 0.007166 0.007221 0.007270 0.007314 0.007352 0.007385 0.007413 0.007435 0.007452 0.007462 0.007464 0.007456 0.007439 0.007413 0.007380 0.007343 0.007307 0.007276 0.007250 0.007229 0.007212 0.007194 0.007177 0.007159 0.007143 0.007128 0.007116 0.007106 0.007099 0.007096 0.007098 0.007104 0.007115 0.007131 0.007153 0.007180 0.007212 0.007248 0.007289 0.007333 0.007379 0.007426 0.007474 0.007522 0.007568 0.007612 0.007654 0.007691 0.007725 0.007755 0.007780 0.007799 0.007813 0.007821 0.007821 0.007813 0.007796 0.007769 0.007731 0.007681 0.007618 0.007542 0.007452 0.007348 0.007229 0.007097 0.006952 0.006793 0.006621 0.006438 0.006243 0.006037 0.005821 0.005595 0.005359 0.005114 0.004861 0.004600 0.004334 0.004065 0.003799 0.003543 0.003309 0.003113 0.002977 0.002926 0.002985 0.003174 0.003501 0.003950 0.004478 0.005009 0.005437 0.005639
0.004925 0.005079 0.004790 0.004267 0.003672 0.003112 0.002650 0.002315 0.002110 0.002023 0.002032 0.002112 0.002240 0.002398 0.002571 0.002750 0.002928 0.003103 0.003272 0.003432 0.003585 0.003728 0.003863 0.003989 0.004105 0.004213 0.004311 0.004401 0.004483 0.004557 0.004623 0.004682 0.004734 0.004781 0.004822 0.004858 0.004890 0.004918 0.004942 0.004962 0.004979 0.004993 0.005003 0.005009 0.005010 0.005006 0.004996 0.004981 0.004962 0.004940 0.004918 0.004897 0.004878 0.004862 0.004848 0.004835 0.004823 0.004810 0.004799 0.004788 0.004778 0.004770 0.004764 0.004760 0.004758 0.004760 0.004765 0.004773 0.004785 0.004800 0.004819 0.004840 0.004865 0.004891 0.004919 0.004948 0.004978 0.005007 0.005036 0.005063 0.005089 0.005113 0.005134 0.005152 0.005167 0.005179 0.005187 0.005190 0.005189 0.005183 0.005171 0.005152 0.005126 0.005093 0.005051 0.005001 0.004942 0.004874 0.004797 0.004710 0.004615 0.004511 0.004398 0.004278 0.004150 0.004014 0.003872 0.003722 0.003567 0.003405 0.003238 0.003067 0.002894 0.002723 0.002558 0.002411 0.002295 0.002229 0.002240 0.002357 0.002610 0.003024 0.003610 0.004355 0.005218 0.006127 0.006985 0.007688
0.006574 0.006401 0.005827 0.005039 0.004191 0.003394 0.002718 0.002195 0.001830 0.001606 0.001498 0.001476 0.001513 0.001588 0.001684 0.001791 0.001901 0.002011 0.002118 0.002220 0.002317 0.002409 0.002496 0.002576 0.002651 0.002720 0.002783 0.002841 0.002894 0.002941 0.002984 0.003022 0.003056 0.003086 0.003112 0.003135 0.003155 0.003172 0.003187 0.003199 0.003209 0.003217 0.003222 0.003226 0.003226 0.003223 0.003217 0.003209 0.003198 0.003185 0.003171 0.003158 0.003145 0.003134 0.003124 0.003114 0.003105 0.003097 0.003089 0.003082 0.003075 0.003070 0.003065 0.003061 0.003060 0.003059 0.003061 0.003065 0.003072 0.003080 0.003091 0.003104 0.003118 0.003134 0.003150 0.003168 0.003186 0.003203 0.003221 0.003237 0.003253 0.003267 0.003280 0.003291 0.003300 0.003306 0.003311 0.003312 0.003311 0.003306 0.003298 0.003285 0.003269 0.003247 0.003221 0.003189 0.003151 0.003108 0.003059 0.003005 0.002945 0.002879 0.002809 0.002733 0.002652 0.002566 0.002476 0.002381 0.002282 0.002180 0.002075 0.001967 0.001861 0.001759 0.001669 0.001601 0.001573 0.001607 0.001734 0.001988 0.002407 0.003020 0.003844 0.004869 0.006057 0.007341 0.008633 0.009851
0.008232 0.007739 0.006894 0.005853 0.004765 0.003747 0.002874 0.002183 0.001677 0.001339 0.001136 0.001036 0.001006 0.001021 0.001063 0.001120 0.001183 0.001248 0.001312 0.001375 0.001434 0.001491 0.001544 0.001593 0.001639 0.001682 0.001721 0.001757 0.001790 0.001819 0.001846 0.001870 0.001891 0.001909 0.001925 0.001939 0.001951 0.001961 0.001970 0.001977 0.001983 0.001987 0.001990 0.001991 0.001991 0.001989 0.001986 0.001981 0.001974 0.001967 0.001959 0.001950 0.001942 0.001935 0.001928 0.001922 0.001916 0.001911 0.001906 0.001902 0.001897 0.001894 0.001890 0.001888 0.001886 0.001886 0.001886 0.001888 0.001892 0.001896 0.001902 0.001910 0.001918 0.001927 0.001937 0.001947 0.001957 0.001968 0.001978 0.001987 0.001997 0.002005 0.002012 0.002019 0.002024 0.002028 0.002030 0.002030 0.002029 0.002026 0.002020 0.002012 0.002002 0.001989 0.001972 0.001953 0.001930 0.001904 0.001874 0.001841 0.001805 0.001765 0.001722 0.001676 0.001627 0.001575 0.001520 0.001462 0.001402 0.001340 0.001277 0.001213 0.001153 0.001099 0.001061 0.001050 0.001087 0.001197 0.001416 0.001785 0.002347 0.003139 0.004183 0.005474 0.006975 0.008618 0.010317 0.011991
0.009730 0.009022 0.007957 0.006691 0.005381 0.004155 0.003101 0.002257 0.001628 0.001193 0.000914 0.000752 0.000673 0.000646 0.000651 0.000674 0.000706 0.000742 0.000779 0.000815 0.000850 0.000883 0.000915 0.000944 0.000971 0.000996 0.001019 0.001041 0.001060 0.001078 0.001094 0.001108 0.001120 0.001131 0.001141 0.001149 0.001156 0.001162 0.001167 0.001170 0.001173 0.001175 0.001177 0.001177 0.001177 0.001176 0.001174 0.001171 0.001168 0.001163 0.001159 0.001154 0.001149 0.001144 0.001140 0.001137 0.001133 0.001130 0.001127 0.001124 0.001122 0.001119 0.001117 0.001116 0.001114 0.001114 0.001114 0.001115 0.001117 0.001119 0.001123 0.001127 0.001131 0.001136 0.001142 0.001148 0.001154 0.001160 0.001165 0.001171 0.001176 0.001181 0.001185 0.001188 0.001191 0.001193 0.001194 0.001194 0.001193 0.001191 0.001188 0.001183 0.001177 0.001169 0.001159 0.001147 0.001134 0.001119 0.001102 0.001082 0.001061 0.001038 0.001013 0.000986 0.000958 0.000927 0.000895 0.000862 0.000827 0.000791 0.000755 0.000720 0.000689 0.000668 0.000665 0.000695 0.000780 0.000949 0.001244 0.001711 0.002400 0.003356 0.004607 0.006152 0.007953 0.009938 0.012007 0.014046
0.011004 0.010224 0.009001 0.007540 0.006026 0.004607 0.003382 0.002397 0.001658 0.001137 0.000795 0.000585 0.000469 0.000412 0.000393 0.000394 0.000406 0.000424 0.000443 0.000463 0.000483 0.000501 0.000519 0.000535 0.000551 0.000565 0.000578 0.000590 0.000601 0.000611 0.000620 0.000628 0.000636 0.000642 0.000647 0.000652 0.000656 0.000659 0.000661 0.000663 0.000665 0.000666 0.000666 0.000667 0.000666 0.000666 0.000665 0.000663 0.000661 0.000659 0.000656 0.000653 0.000651 0.000648 0.000646 0.000643 0.000641 0.000640 0.000638 0.000637 0.000635 0.000634 0.000633 0.000631 0.000631 0.000630 0.000630 0.000631 0.000632 0.000633 0.000635 0.000637 0.000640 0.000642 0.000645 0.000649 0.000652 0.000655 0.000658 0.000661 0.000664 0.000667 0.000669 0.000671 0.000672 0.000673 0.000674 0.000674 0.000673 0.000672 0.000670 0.000667 0.000663 0.000659 0.000653 0.000647 0.000639 0.000630 0.000621 0.000610 0.000598 0.000585 0.000571 0.000556 0.000540 0.000523 0.000506 0.000487 0.000467 0.000448 0.000429 0.000412 0.000401 0.000401 0.000422 0.000480 0.000601 0.000818 0.001176 0.001730 0.002536 0.003646 0.005096 0.006887 0.008982 0.011302 0.013738 0.016160
0.012270 0.011410 0.010044 0.008402 0.006693 0.005089 0.003702 0.002585 0.001743 0.001146 0.000747 0.000498 0.000353 0.000276 0.000239 0.000226 0.000227 0.000233 0.000242 0.000252 0.000262 0.000272 0.000282 0.000291 0.000299 0.000307 0.000314 0.000321 0.000327 0.000332 0.000337 0.000341 0.000345 0.000348 0.000351 0.000354 0.000356 0.000358 0.000359 0.000360 0.000361 0.000361 0.000361 0.000361 0.000361 0.000361 0.000360 0.000359 0.000358 0.000357 0.000356 0.000354 0.000353 0.000351 0.000350 0.000349 0.000348 0.000347 0.000346 0.000345 0.000344 0.000343 0.000343 0.000342 0.000342 0.000341 0.000341 0.000342 0.000342 0.000343 0.000344 0.000345 0.000346 0.000348 0.000349 0.000351 0.000353 0.000355 0.000356 0.000358 0.000359 0.000361 0.000362 0.000363 0.000364 0.000364 0.000364 0.000364 0.000364 0.000363 0.000362 0.000360 0.000358 0.000356 0.000353 0.000349 0.000345 0.000340 0.000335 0.000329 0.000323 0.000316 0.000309 0.000301 0.000292 0.000283 0.000273 0.000263 0.000253 0.000243 0.000234 0.000229 0.000229 0.000243 0.000280 0.000360 0.000509 0.000766 0.001180 0.001813 0.002730 0.003990 0.005634 0.007668 0.010057 0.012716 0.015524 0.018338
0.013547 0.012615 0.011109 0.009285 0.007384 0.005597 0.004051 0.002806 0.001865 0.001196 0.000748 0.000464 0.000295 0.000201 0.000153 0.000132 0.000124 0.000124 0.000127 0.000132 0.000137 0.000142 0.000147 0.000151 0.000155 0.000159 0.000163 0.000167 0.000170 0.000172 0.000175 0.000177 0.000179 0.000181 0.000182 0.000184 0.000185 0.000186 0.000186 0.000187 0.000187 0.000187 0.000187 0.000187 0.000187 0.000187 0.000187 0.000186 0.000186 0.000185 0.000184 0.000183 0.000183 0.000182 0.000181 0.000181 0.000180 0.000180 0.000179 0.000179 0.000178 0.000178 0.000178 0.000177 0.000177 0.000177 0.000177 0.000177 0.000177 0.000178 0.000178 0.000179 0.000179 0.000180 0.000181 0.000182 0.000183 0.000184 0.000185 0.000185 0.000186 0.000187 0.000187 0.000188 0.000188 0.000188 0.000189 0.000188 0.000188 0.000188 0.000187 0.000186 0.000185 0.000184 0.000182 0.000180 0.000178 0.000176 0.000173 0.000170 0.000167 0.000163 0.000160 0.000155 0.000151 0.000146 0.000141 0.000136 0.000132 0.000127 0.000124 0.000125 0.000133 0.000155 0.000205 0.000301 0.000473 0.000765 0.001231 0.001941 0.002965 0.004373 0.006211 0.008492 0.011181 0.014189 0.017388 0.020622
0.014853 0.013885 0.012226 0.010205 0.008101 0.006127 0.004422 0.003049 0.002012 0.001274 0.000778 0.000462 0.000273 0.000166 0.000109 0.000081 0.000069 0.000065 0.000064 0.000066 0.000068 0.000070 0.000073 0.000075 0.000077 0.000079 0.000081 0.000083 0.000084 0.000086 0.000087 0.000088 0.000089 0.000090 0.000091 0.000091 0.000092 0.000092 0.000092 0.000093 0.000093 0.000093 0.000093 0.000093 0.000093 0.000093 0.000092 0.000092 0.000092 0.000092 0.000091 0.000091 0.000090 0.000090 0.000090 0.000090 0.000089 0.000089 0.000089 0.000089 0.000088 0.000088 0.000088 0.000088 0.000088 0.000088 0.000088 0.000088 0.000088 0.000088 0.000088 0.000088 0.000089 0.000089 0.000090 0.000090 0.000091 0.000091 0.000091 0.000092 0.000092 0.000093 0.000093 0.000093 0.000093 0.000093 0.000093 0.000093 0.000093 0.000093 0.000093 0.000092 0.000092 0.000091 0.000090 0.000089 0.000088 0.000087 0.000086 0.000084 0.000083 0.000081 0.000079 0.000077 0.000075 0.000072 0.000070 0.000068 0.000066 0.000064 0.000065 0.000069 0.000082 0.000110 0.000168 0.000278 0.000471 0.000796 0.001313 0.002097 0.003229 0.004785 0.006821 0.009355 0.012355 0.015732 0.019348 0.023035
0.016505 0.015315 0.013425 0.011172 0.008849 0.006681 0.004812 0.003310 0.002176 0.001369 0.000826 0.000480 0.000271 0.000152 0.000088 0.000056 0.000040 0.000034 0.000032 0.000032 0.000033 0.000034 0.000035 0.000036 0.000037 0.000038 0.000038 0.000039 0.000040 0.000041 0.000041 0.000042 0.000042 0.000043 0.000043 0.000043 0.000043 0.000044 0.000044 0.000044 0.000044 0.000044 0.000044 0.000044 0.000044 0.000044 0.000044 0.000044 0.000043 0.000043 0.000043 0.000043 0.000043 0.000043 0.000042 0.000042 0.000042 0.000042 0.000042 0.000042 0.000042 0.000042 0.000042 0.000042 0.000042 0.000041 0.000041 0.000041 0.000042 0.000042 0.000042 0.000042 0.000042 0.000042 0.000042 0.000043 0.000043 0.000043 0.000043 0.000044 0.000044 0.000044 0.000044 0.000044 0.000044 0.000044 0.000044 0.000044 0.000044 0.000044 0.000044 0.000044 0.000043 0.000043 0.000043 0.000042 0.000042 0.000041 0.000040 0.000040 0.000039 0.000038 0.000037 0.000036 0.000035 0.000034 0.000033 0.000032 0.000032 0.000032 0.000034 0.000041 0.000056 0.000090 0.000155 0.000277 0.000490 0.000846 0.001413 0.002273 0.003514 0.005222 0.007462 0.010258 0.013582 0.017348 0.021417 0.025612
0.018418 0.016888 0.014708 0.012191 0.009630 0.007256 0.005219 0.003584 0.002352 0.001475 0.000884 0.000508 0.000281 0.000151 0.000081 0.000045 0.000027 0.000019 0.000016 0.000015 0.000015 0.000015 0.000016 0.000016 0.000017 0.000017 0.000017 0.000018 0.000018 0.000018 0.000019 0.000019 0.000019 0.000019 0.000019 0.000020 0.000020 0.000020 0.000020 0.000020 0.000020 0.000020 0.000020 0.000020 0.000020 0.000020 0.000020 0.000020 0.000020 0.000020 0.000019 0.000019 0.000019 0.000019 0.000019 0.000019 0.000019 0.000019 0.000019 0.000019 0.000019 0.000019 0.000019 0.000019 0.000019 0.000019 0.000019 0.000019 0.000019 0.000019 0.000019 0.000019 0.000019 0.000019 0.000019 0.000019 0.000019 0.000019 0.000020 0.000020 0.000020 0.000020 0.000020 0.000020 0.000020 0.000020 0.000020 0.000020 0.000020 0.000020 0.000020 0.000020 0.000020 0.000019 0.000019 0.000019 0.000019 0.000019 0.000018 0.000018 0.000018 0.000017 0.000017 0.000016 0.000016 0.000015 0.000015 0.000015 0.000015 0.000016 0.000019 0.000027 0.000045 0.000083 0.000155 0.000287 0.000520 0.000908 0.001526 0.002462 0.003816 0.005681 0.008130 0.011197 0.014859 0.019032 0.023589 0.028378
0.020326 0.018523 0.016052 0.013256 0.010443 0.007854 0.005641 0.003870 0.002536 0.001588 0.000950 0.000543 0.000298 0.000157 0.000080 0.000041 0.000021 0.000012 0.000009 0.000007 0.000007 0.000007 0.000007 0.000007 0.000007 0.000007 0.000008 0.000008 0.000008 0.000008 0.000008 0.000008 0.000008 0.000008 0.000008 0.000008 0.000008 0.000009 0.000009 0.000009 0.000009 0.000009 0.000009 0.000009 0.000009 0.000009 0.000008 0.000008 0.000008 0.000008 0.000008 0.000008 0.000008 0.000008 0.000008 0.000008 0.000008 0.000008 0.000008 0.000008 0.000008 0.000008 0.000008 0.000008 0.000008 0.000008 0.000008 0.000008 0.000008 0.000008 0.000008 0.000008 0.000008 0.000008 0.000008 0.000008 0.000008 0.000008 0.000008 0.000008 0.000009 0.000009 0.000009 0.000009 0.000009 0.000009 0.000009 0.000009 0.000009 0.000009 0.000009 0.000008 0.000008 0.000008 0.000008 0.000008 0.000008 0.000008 0.000008 0.000008 0.000008 0.000007 0.000007 0.000007 0.000007 0.000007 0.000007 0.000007 0.000007 0.000009 0.000013 0.000022 0.000042 0.000082 0.000161 0.000305 0.000557 0.000978 0.001647 0.002662 0.004131 0.006158 0.008825 0.012171 0.016179 0.020766 0.025800 0.031123
0.022313 0.020215 0.017444 0.014359 0.011286 0.008473 0.006078 0.004167 0.002729 0.001707 0.001020 0.000582 0.000317 0.000166 0.000083 0.000040 0.000019 0.000010 0.000005 0.000004 0.000003 0.000003 0.000003 0.000003 0.000003 0.000003 0.000003 0.000003 0.000003 0.000003 0.000003 0.000003 0.000003 0.000003 0.000003 0.000003 0.000003 0.000004 0.000004 0.000004 0.000004 0.000004 0.000004 0.000004 0.000004 0.000003 0.000003 0.000003 0.000003 0.000003 0.000003 0.000003 0.000003 0.000003 0.000003 0.000003 0.000003 0.000003 0.000003 0.000003 0.000003 0.000003 0.000003 0.000003 0.000003 0.000003 0.000003 0.000003 0.000003 0.000003 0.000003 0.000003 0.000003 0.000003 0.000003 0.000003 0.000003 0.000003 0.000003 0.000003 0.000004 0.000004 0.000004 0.000004 0.000004 0.000004 0.000004 0.000004 0.000004 0.000004 0.000003 0.000003 0.000003 0.000003 0.000003 0.000003 0.000003 0.000003 0.000003 0.000003 0.000003 0.000003 0.000003 0.000003 0.000003 0.000003 0.000003 0.000003 0.000004 0.000006 0.000010 0.000020 0.000042 0.000086 0.000170 0.000326 0.000598 0.001052 0.001775 0.002872 0.004460 0.006655 0.009545 0.013179 0.017540 0.022542 0.028040 0.033857
0.024253 0.021928 0.018874 0.015498 0.012156 0.009112 0.006530 0.004473 0.002928 0.001831 0.001093 0.000623 0.000339 0.000177 0.000088 0.000042 0.000019 0.000009 0.000004 0.000002 0.000002 0.000001 0.000001 0.000001 0.000001 0.000001 0.000001 0.000001 0.000001 0.000001 0.000001 0.000001 0.000001 0.000001 0.000001 0.000001 0.000001 0.000001 0.000001 0.000001 0.000001 0.000001 0.000001 0.000001 0.000001 0.000001 0.000001 0.000001 0.000001 0.000001 0.000001 0.000001 0.000001 0.000001 0.000001 0.000001 0.000001 0.000001 0.000001 0.000001 0.000001 0.000001 0.000001 0.000001 0.000001 0.000001 0.000001 0.000001 0.000001 0.000001 0.000001 0.000001 0.000001 0.000001 0.000001 0.000001 0.000001 0.000001 0.000001 0.000001 0.000001 0.000001 0.000001 0.000001 0.000001 0.000001 0.000001 0.000001 0.000001 0.000001 0.000001 0.000001 0.000001 0.000001 0.000001 0.000001 0.000001 0.000001 0.000001 0.000001 0.000001 0.000001 0.000001 0.000001 0.000001 0.000001 0.000001 0.000001 0.000002 0.000004 0.000009 0.000020 0.000044 0.000091 0.000182 0.000349 0.000642 0.001130 0.001908 0.003090 0.004802 0.007170 0.010292 0.014222 0.018943 0.024365 0.030326 0.036616
0.026213 0.023685 0.020350 0.016675 0.013055 0.009773 0.006997 0.004790 0.003134 0.001959 0.001169 0.000667 0.000363 0.000188 0.000093 0.000044 0.000020 0.000009 0.000004 0.000002 0.000001 0.000001 0.000000 0.000000 0.000000 0.000000 0.000000 0.000000 0.000000 0.000000 0.000000 0.000000 0.000000 0.000001 0.000001 0.000001 0.000001 0.000001 0.000001 0.000001 0.000001 0.000001 0.000001 0.000001 0.000001 0.000001 0.000001 0.000001 0.000001 0.000001 0.000000 0.000000 0.000000 0.000000 0.000000 0.000000 0.000000 0.000000 0.000000 0.000000 0.000000 0.000000 0.000000 0.000000 0.000000 0.000000 0.000000 0.000000 0.000000 0.000000 0.000000 0.000000 0.000000 0.000000 0.000000 0.000000 0.000001 0.000001 0.000001 0.000001 0.000001 0.000001 0.000001 0.000001 0.000001 0.000001 0.000001 0.000001 0.000001 0.000001 0.000001 0.000001 0.000001 0.000000 0.000000 0.000000 0.000000 0.000000 0.000000 0.000000 0.000000 0.000000 0.000000 0.000000 0.000000 0.000000 0.000001 0.000001 0.000002 0.000004 0.000009 0.000021 0.000046 0.000097 0.000194 0.000374 0.000688 0.001212 0.002048 0.003317 0.005158 0.007704 0.011066 0.015301 0.020395 0.026250 0.032694 0.039507
0.028289 0.025526 0.021887 0.017897 0.013986 0.010456 0.007479 0.005117 0.003347 0.002092 0.001248 0.000711 0.000387 0.000201 0.000100 0.000047 0.000021 0.000009 0.000004 0.000002 0.000001 0.000000 0.000000 0.000000 0.000000 0.000000 0.000000 0.000000 0.000000 0.000000 0.000000 0.000000 0.000000 0.000000 0.000000 0.000000 0.000000 0.000000 0.000000 0.000000 0.000000 0.000000 0.000000 0.000000 0.000000 0.000000 0.000000 0.000000 0.000000 0.000000 0.000000 0.000000 0.000000 0.000000 0.000000 0.000000 0.000000 0.000000 0.000000 0.000000 0.000000 0.000000 0.000000 0.000000 0.000000 0.000000 0.000000 0.000000 0.000000 0.000000 0.000000 0.000000 0.000000 0.000000 0.000000 0.000000 0.000000 0.000000 0.000000 0.000000 0.000000 0.000000 0.000000 0.000000 0.000000 0.000000 0.000000 0.000000 0.000000 0.000000 0.000000 0.000000 0.000000 0.000000 0.000000 0.000000 0.000000 0.000000 0.000000 0.000000 0.000000 0.000000 0.000000 0.000000 0.000000 0.000000 0.000000 0.000001 0.000002 0.000004 0.000010 0.000022 0.000049 0.000103 0.000208 0.000400 0.000736 0.001298 0.002192 0.003553 0.005527 0.008259 0.011869 0.016420 0.021900 0.028206 0.035155 0.042515
0.030542 0.027479 0.023498 0.019170 0.014954 0.011165 0.007980 0.005456 0.003568 0.002229 0.001330 0.000758 0.000412 0.000214 0.000106 0.000050 0.000023 0.000010 0.000004 0.000002 0.000001 0.000000 0.000000 0.000000 0.000000 0.000000 0.000000 0.000000 0.000000 0.000000 0.000000 0.000000 0.000000 0.000000 0.000000 0.000000 0.000000 0.000000 0.000000 0.000000 0.000000 0.000000 0.000000 0.000000 0.000000 0.000000 0.000000 0.000000 0.000000 0.000000 0.000000 0.000000 0.000000 0.000000 0.000000 0.000000 0.000000 0.000000 0.000000 0.000000 0.000000 0.000000 0.000000 0.000000 0.000000 0.000000 0.000000 0.000000 0.000000 0.000000 0.000000 0.000000 0.000000 0.000000 0.000000 0.000000 0.000000 0.000000 0.000000 0.000000 0.000000 0.000000 0.000000 0.000000 0.000000 0.000000 0.000000 0.000000 0.000000 0.000000 0.000000 0.000000 0.000000 0.000000 0.000000 0.000000 0.000000 0.000000 0.000000 0.000000 0.000000 0.000000 0.000000 0.000000 0.000000 0.000000 0.000000 0.000001 0.000002 0.000004 0.000010 0.000024 0.000052 0.000110 0.000222 0.000427 0.000786 0.001387 0.002344 0.003799 0.005911 0.008837 0.012704 0.017585 0.023467 0.030244 0.037722 0.045651
0.032988 0.029546 0.025186 0.020499 0.015962 0.011903 0.008500 0.005810 0.003797 0.002372 0.001416 0.000807 0.000439 0.000228 0.000113 0.000053 0.000024 0.000010 0.000004 0.000002 0.000001 0.000000 0.000000 0.000000 0.000000 0.000000 0.000000 0.000000 0.000000 0.000000 0.000000 0.000000 0.000000 0.000000 0.000000 0.000000 0.000000 0.000000 0.000000 0.000000 0.000000 0.000000 0.000000 0.000000 0.000000 0.000000 0.000000 0.000000 0.000000 0.000000 0.000000 0.000000 0.000000 0.000000 0.000000 0.000000 0.000000 0.000000 0.000000 0.000000 0.000000 0.000000 0.000000 0.000000 0.000000 0.000000 0.000000 0.000000 0.000000 0.000000 0.000000 0.000000 0.000000 0.000000 0.000000 0.000000 0.000000 0.000000 0.000000 0.000000 0.000000 0.000000 0.000000 0.000000 0.000000 0.000000 0.000000 0.000000 0.000000 0.000000 0.000000 0.000000 0.000000 0.000000 0.000000 0.000000 0.000000 0.000000 0.000000 0.000000 0.000000 0.000000 0.000000 0.000000 0.000000 0.000000 0.000000 0.000001 0.000002 0.000005 0.000011 0.000025 0.000056 0.000118 0.000237 0.000456 0.000839 0.001480 0.002501 0.004055 0.006312 0.009439 0.013575 0.018799 0.025102 0.032372 0.040409 0.048952
0.035472 0.031678 0.026940 0.021883 0.017015 0.012674 0.009044 0.006178 0.004037 0.002521 0.001504 0.000857 0.000466 0.000242 0.000120 0.000057 0.000026 0.000011 0.000004 0.000002 0.000001 0.000000 0.000000 0.000000 0.000000 0.000000 0.000000 0.000000 0.000000 0.000000 0.000000 0.000000 0.000000 0.000000 0.000000 0.000000 0.000000 0.000000 0.000000 0.000000 0.000000 0.000000 0.000000 0.000000 0.000000 0.000000 0.000000 0.000000 0.000000 0.000000 0.000000 0.000000 0.000000 0.000000 0.000000 0.000000 0.000000 0.000000 0.000000 0.000000 0.000000 0.000000 0.000000 0.000000 0.000000 0.000000 0.000000 0.000000 0.000000 0.000000 0.000000 0.000000 0.000000 0.000000 0.000000 0.000000 0.000000 0.000000 0.000000 0.000000 0.000000 0.000000 0.000000 0.000000 0.000000 0.000000 0.000000 0.000000 0.000000 0.000000 0.000000 0.000000 0.000000 0.000000 0.000000 0.000000 0.000000 0.000000 0.000000 0.000000 0.000000 0.000000 0.000000 0.000000 0.000000 0.000000 0.000000 0.000001 0.000002 0.000005 0.000012 0.000027 0.000060 0.000125 0.000252 0.000486 0.000894 0.001577 0.002666 0.004323 0.006730 0.010067 0.014484 0.020067 0.026808 0.034595 0.043218 0.052409