# vtk DataFile Version 2.0
test
ASCII
DATASET STRUCTURED_POINTS
DIMENSIONS 128 128 1
ORIGIN 0 0 0
SPACING 1 1 1
POINT_DATA 16384
SCALARS values float
LOOKUP_TABLE default
0.000658 -0.001100 0.001071 0.001157 0.002688 0.003927 0.006369 0.008218 0.010484 0.011911 0.013654 0.015653 0.017567 0.019533 0.021154 0.023167 0.024782 0.026091 0.027868 0.029056 0.030316 0.031544 0.032369 0.033539 0.034368 0.034958 0.035763 0.036287 0.036677 0.037260 0.037564 0.037799 0.038201 0.038361 0.038579 0.038856 0.039027 0.039192 0.039387 0.039496 0.039652 0.039766 0.039890 0.040116 0.040246 0.040298 0.040375 0.040184 0.039638 0.039158 0.038497 0.037333 0.036670 0.037751 0.039527 0.039306 0.037731 0.038005 0.038462 0.037552 0.037905 0.037803 0.037459 0.037726 0.037391 0.037665 0.037392 0.037603 0.037613 0.037758 0.037737 0.038013 0.038168 0.038554 0.038763 0.039142 0.039397 0.039769 0.040013 0.040238 0.040500 0.040671 0.040855 0.040890 0.041003 0.041099 0.041144 0.041161 0.041153 0.041162 0.041142 0.040997 0.040859 0.040641 0.040327 0.039977 0.039436 0.038880 0.038227 0.037431 0.036665 0.035711 0.034717 0.033736 0.032590 0.031455 0.030312 0.029083 0.027893 0.026607 0.025246 0.023944 0.022624 0.021257 0.019908 0.018480 0.016991 0.015533 0.014013 0.012351 0.010518 0.008454 0.006273 0.004238 0.002491 0.001091 0.000240 0.000126
0.001097 -0.001262 -0.000930 0.000313 0.002177 0.003704 0.005192 0.006456 0.007784 0.008948 0.010197 0.011498 0.012740 0.013930 0.015014 0.016161 0.017202 0.018150 0.019172 0.020059 0.020929 0.021754 0.022463 0.023209 0.023853 0.024413 0.024981 0.025457 0.025870 0.026289 0.026621 0.026909 0.027202 0.027417 0.027621 0.027815 0.027969 0.028104 0.028228 0.028320 0.028411 0.028482 0.028547 0.028632 0.028689 0.028717 0.028739 0.028684 0.028525 0.028350 0.028097 0.027696 0.027402 0.027515 0.027750 0.027485 0.026971 0.027023 0.027233 0.027089 0.027078 0.026948 0.026799 0.026795 0.026689 0.026729 0.026676 0.026737 0.026772 0.026845 0.026894 0.027014 0.027121 0.027285 0.027419 0.027591 0.027745 0.027932 0.028094 0.028247 0.028401 0.028533 0.028662 0.028751 0.028845 0.028927 0.028987 0.029024 0.029037 0.029034 0.029003 0.028921 0.028812 0.028654 0.028443 0.028189 0.027860 0.027490 0.027061 0.026567 0.026043 0.025443 0.024799 0.024123 0.023382 0.022612 0.021810 0.020960 0.020088 0.019170 0.018213 0.017244 0.016248 0.015216 0.014164 0.013072 0.011947 0.010810 0.009643 0.008430 0.007169 0.005865 0.004576 0.003398 0.002398 0.001587 0.000930 0.000255
0.001592 -0.001015 -0.001235 0.000016 0.001555 0.002737 0.003633 0.004415 0.005194 0.005981 0.006797 0.007614 0.008389 0.009111 0.009793 0.010467 0.011115 0.011735 0.012345 0.012932 0.013497 0.014030 0.014526 0.015000 0.015443 0.015854 0.016239 0.016589 0.016907 0.017199 0.017460 0.017693 0.017901 0.018077 0.018229 0.018361 0.018472 0.018565 0.018643 0.018705 0.018756 0.018795 0.018823 0.018849 0.018867 0.018874 0.018877 0.018868 0.018837 0.018792 0.018719 0.018598 0.018453 0.018327 0.018184 0.017970 0.017789 0.017797 0.017902 0.017924 0.017863 0.017764 0.017686 0.017635 0.017591 0.017580 0.017578 0.017598 0.017627 0.017671 0.017720 0.017779 0.017844 0.017920 0.017996 0.018078 0.018163 0.018259 0.018357 0.018451 0.018541 0.018629 0.018713 0.018788 0.018855 0.018912 0.018958 0.018988 0.018999 0.018992 0.018965 0.018914 0.018837 0.018732 0.018597 0.018433 0.018234 0.018004 0.017740 0.017442 0.017114 0.016750 0.016353 0.015926 0.015468 0.014980 0.014464 0.013916 0.013341 0.012740 0.012113 0.011464 0.010790 0.010090 0.009367 0.008621 0.007856 0.007074 0.006279 0.005477 0.004681 0.003913 0.003214 0.002634 0.002206 0.001910 0.001625 0.001084
0.003387 0.000477 -0.000203 0.000390 0.001210 0.001834 0.002302 0.002724 0.003159 0.003620 0.004105 0.004589 0.005054 0.005491 0.005908 0.006314 0.006709 0.007091 0.007459 0.007816 0.008157 0.008479 0.008782 0.009067 0.009337 0.009589 0.009824 0.010041 0.010239 0.010421 0.010586 0.010734 0.010864 0.010975 0.011070 0.011149 0.011215 0.011271 0.011316 0.011351 0.011377 0.011395 0.011404 0.011408 0.011409 0.011405 0.011401 0.011397 0.011386 0.011368 0.011340 0.011293 0.011221 0.011126 0.011014 0.010900 0.010824 0.010818 0.010855 0.010869 0.010834 0.010781 0.010736 0.010698 0.010671 0.010660 0.010659 0.010669 0.010686 0.010712 0.010744 0.010779 0.010818 0.010860 0.010903 0.010949 0.010996 0.011049 0.011103 0.011156 0.011208 0.011257 0.011306 0.011349 0.011387 0.011417 0.011441 0.011455 0.011458 0.011448 0.011428 0.011394 0.011345 0.011280 0.011199 0.011100 0.010984 0.010849 0.010695 0.010522 0.010329 0.010118 0.009886 0.009636 0.009367 0.009080 0.008774 0.008450 0.008108 0.007749 0.007375 0.006985 0.006578 0.006155 0.005717 0.005266 0.004803 0.004330 0.003853 0.003380 0.002930 0.002532 0.002231 0.002076 0.002104 0.002289 0.002496 0.002461
0.004268 0.002462 0.001449 0.001144 0.001176 0.001291 0.001426 0.001589 0.001790 0.002024 0.002280 0.002542 0.002799 0.003046 0.003283 0.003515 0.003740 0.003958 0.004167 0.004367 0.004557 0.004735 0.004902 0.005059 0.005207 0.005345 0.005472 0.005590 0.005699 0.005798 0.005889 0.005970 0.006041 0.006102 0.006152 0.006194 0.006229 0.006258 0.006281 0.006299 0.006311 0.006317 0.006318 0.006315 0.006310 0.006304 0.006298 0.006293 0.006284 0.006271 0.006251 0.006225 0.006190 0.006148 0.006101 0.006057 0.006028 0.006020 0.006026 0.006026 0.006011 0.005986 0.005961 0.005939 0.005923 0.005914 0.005912 0.005915 0.005925 0.005939 0.005957 0.005978 0.006001 0.006026 0.006051 0.006078 0.006105 0.006133 0.006162 0.006191 0.006218 0.006244 0.006269 0.006290 0.006307 0.006320 0.006329 0.006332 0.006330 0.006321 0.006307 0.006285 0.006257 0.006220 0.006175 0.006120 0.006056 0.005983 0.005898 0.005804 0.005699 0.005584 0.005458 0.005322 0.005176 0.005021 0.004855 0.004679 0.004494 0.004299 0.004095 0.003883 0.003661 0.003431 0.003193 0.002947 0.002695 0.002439 0.002184 0.001940 0.001728 0.001586 0.001568 0.001741 0.002158 0.002802 0.003529 0.004061
0.005096 0.004496 0.003141 0.001976 0.001327 0.001038 0.000925 0.000911 0.000962 0.001056 0.001172 0.001298 0.001424 0.001548 0.001668 0.001787 0.001902 0.002014 0.002122 0.002224 0.002319 0.002409 0.002493 0.002572 0.002645 0.002713 0.002776 0.002834 0.002888 0.002938 0.002983 0.003023 0.003058 0.003088 0.003112 0.003132 0.003148 0.003161 0.003172 0.003180 0.003185 0.003186 0.003184 0.003180 0.003175 0.003170 0.003166 0.003162 0.003156 0.003147 0.003135 0.003119 0.003102 0.003084 0.003068 0.003055 0.003047 0.003044 0.003044 0.003042 0.003035 0.003023 0.003010 0.002997 0.002987 0.002981 0.002979 0.002980 0.002984 0.002991 0.003001 0.003013 0.003026 0.003040 0.003054 0.003069 0.003084 0.003099 0.003114 0.003128 0.003142 0.003155 0.003167 0.003176 0.003183 0.003188 0.003190 0.003190 0.003186 0.003180 0.003171 0.003159 0.003143 0.003124 0.003101 0.003073 0.003041 0.003004 0.002962 0.002915 0.002863 0.002805 0.002743 0.002675 0.002603 0.002526 0.002444 0.002357 0.002265 0.002169 0.002068 0.001962 0.001852 0.001738 0.001620 0.001498 0.001374 0.001249 0.001129 0.001025 0.000965 0.000994 0.001182 0.001617 0.002374 0.003449 0.004681 0.005736
0.006160 0.006227 0.004529 0.002707 0.001548 0.000955 0.000665 0.000536 0.000500 0.000516 0.000557 0.000609 0.000664 0.000719 0.000773 0.000826 0.000879 0.000930 0.000979 0.001026 0.001070 0.001110 0.001148 0.001184 0.001218 0.001248 0.001276 0.001302 0.001327 0.001349 0.001370 0.001388 0.001404 0.001417 0.001427 0.001435 0.001442 0.001448 0.001452 0.001455 0.001457 0.001457 0.001455 0.001452 0.001448 0.001445 0.001443 0.001441 0.001438 0.001433 0.001426 0.001417 0.001408 0.001400 0.001395 0.001392 0.001392 0.001392 0.001393 0.001392 0.001389 0.001384 0.001377 0.001370 0.001364 0.001360 0.001358 0.001357 0.001359 0.001363 0.001368 0.001374 0.001381 0.001388 0.001395 0.001403 0.001411 0.001418 0.001425 0.001433 0.001439 0.001445 0.001451 0.001455 0.001458 0.001459 0.001459 0.001458 0.001455 0.001451 0.001446 0.001440 0.001432 0.001423 0.001413 0.001400 0.001385 0.001368 0.001349 0.001328 0.001304 0.001278 0.001250 0.001219 0.001186 0.001152 0.001115 0.001076 0.001035 0.000991 0.000946 0.000898 0.000849 0.000797 0.000744 0.000689 0.000633 0.000579 0.000533 0.000510 0.000540 0.000680 0.001019 0.001668 0.002726 0.004209 0.005955 0.007605
0.008056 0.007791 0.005630 0.003323 0.001794 0.000973 0.000555 0.000350 0.000263 0.000239 0.000245 0.000262 0.000282 0.000303 0.000325 0.000346 0.000367 0.000388 0.000408 0.000427 0.000445 0.000462 0.000477 0.000492 0.000506 0.000518 0.000530 0.000540 0.000550 0.000559 0.000568 0.000576 0.000582 0.000587 0.000591 0.000594 0.000596 0.000599 0.000600 0.000602 0.000602 0.000602 0.000601 0.000599 0.000597 0.000595 0.000595 0.000594 0.000593 0.000590 0.000586 0.000581 0.000577 0.000574 0.000572 0.000572 0.000573 0.000574 0.000576 0.000576 0.000574 0.000572 0.000568 0.000565 0.000561 0.000559 0.000557 0.000557 0.000558 0.000559 0.000561 0.000564 0.000568 0.000571 0.000575 0.000578 0.000582 0.000586 0.000589 0.000592 0.000595 0.000598 0.000600 0.000602 0.000603 0.000603 0.000603 0.000602 0.000600 0.000598 0.000596 0.000593 0.000590 0.000586 0.000581 0.000576 0.000570 0.000563 0.000555 0.000546 0.000536 0.000526 0.000514 0.000501 0.000488 0.000474 0.000459 0.000443 0.000426 0.000409 0.000390 0.000371 0.000351 0.000330 0.000308 0.000285 0.000264 0.000245 0.000236 0.000255 0.000338 0.000554 0.001009 0.001840 0.003173 0.005050 0.007327 0.009656
0.009812 0.009203 0.006608 0.003890 0.002058 0.001052 0.000533 0.000274 0.000157 0.000112 0.000101 0.000102 0.000109 0.000116 0.000123 0.000131 0.000138 0.000146 0.000153 0.000160 0.000166 0.000173 0.000178 0.000184 0.000189 0.000193 0.000197 0.000201 0.000205 0.000208 0.000212 0.000214 0.000217 0.000219 0.000220 0.000221 0.000222 0.000222 0.000223 0.000224 0.000224 0.000224 0.000223 0.000222 0.000221 0.000220 0.000220 0.000220 0.000220 0.000219 0.000217 0.000214 0.000212 0.000211 0.000210 0.000211 0.000212 0.000213 0.000214 0.000214 0.000214 0.000212 0.000211 0.000209 0.000207 0.000206 0.000205 0.000205 0.000205 0.000206 0.000207 0.000208 0.000209 0.000211 0.000213 0.000214 0.000216 0.000217 0.000219 0.000220 0.000221 0.000223 0.000224 0.000224 0.000224 0.000224 0.000224 0.000223 0.000223 0.000222 0.000221 0.000219 0.000218 0.000217 0.000215 0.000213 0.000211 0.000208 0.000205 0.000202 0.000198 0.000194 0.000190 0.000185 0.000180 0.000175 0.000170 0.000164 0.000158 0.000151 0.000145 0.000138 0.000130 0.000122 0.000114 0.000106 0.000099 0.000096 0.000105 0.000146 0.000263 0.000535 0.001088 0.002084 0.003678 0.005938 0.008748 0.011771
0.011641 0.010636 0.007583 0.004459 0.002341 0.001167 0.000560 0.000258 0.000118 0.000061 0.000041 0.000037 0.000038 0.000040 0.000042 0.000044 0.000047 0.000049 0.000051 0.000054 0.000056 0.000058 0.000059 0.000061 0.000063 0.000064 0.000066 0.000067 0.000068 0.000069 0.000070 0.000071 0.000072 0.000073 0.000073 0.000073 0.000074 0.000074 0.000074 0.000074 0.000074 0.000074 0.000074 0.000074 0.000073 0.000073 0.000073 0.000073 0.000073 0.000072 0.000072 0.000071 0.000070 0.000069 0.000069 0.000069 0.000070 0.000071 0.000071 0.000071 0.000071 0.000071 0.000070 0.000069 0.000068 0.000068 0.000067 0.000067 0.000067 0.000067 0.000068 0.000068 0.000069 0.000070 0.000070 0.000071 0.000071 0.000072 0.000073 0.000073 0.000074 0.000074 0.000075 0.000075 0.000075 0.000075 0.000075 0.000074 0.000074 0.000073 0.000073 0.000073 0.000072 0.000072 0.000071 0.000070 0.000070 0.000069 0.000068 0.000067 0.000065 0.000064 0.000063 0.000061 0.000060 0.000058 0.000056 0.000054 0.000052 0.000050 0.000048 0.000046 0.000043 0.000041 0.000038 0.000036 0.000035 0.000038 0.000055 0.000109 0.000250 0.000570 0.001212 0.002366 0.004214 0.006852 0.010197 0.013940
0.013690 0.012143 0.008586 0.005045 0.002641 0.001303 0.000611 0.000268 0.000110 0.000044 0.000020 0.000013 0.000012 0.000012 0.000013 0.000013 0.000014 0.000015 0.000015 0.000016 0.000017 0.000017 0.000018 0.000018 0.000019 0.000019 0.000019 0.000020 0.000020 0.000020 0.000021 0.000021 0.000021 0.000022 0.000022 0.000022 0.000022 0.000022 0.000022 0.000022 0.000022 0.000022 0.000022 0.000022 0.000022 0.000021 0.000021 0.000022 0.000022 0.000021 0.000021 0.000021 0.000020 0.000020 0.000020 0.000020 0.000021 0.000021 0.000021 0.000021 0.000021 0.000021 0.000021 0.000020 0.000020 0.000020 0.000020 0.000020 0.000020 0.000020 0.000020 0.000020 0.000020 0.000020 0.000021 0.000021 0.000021 0.000021 0.000021 0.000022 0.000022 0.000022 0.000022 0.000022 0.000022 0.000022 0.000022 0.000022 0.000022 0.000022 0.000021 0.000021 0.000021 0.000021 0.000021 0.000021 0.000020 0.000020 0.000020 0.000020 0.000019 0.000019 0.000018 0.000018 0.000017 0.000017 0.000016 0.000016 0.000015 0.000015 0.000014 0.000013 0.000013 0.000012 0.000011 0.000011 0.000012 0.000018 0.000040 0.000104 0.000265 0.000628 0.001358 0.002668 0.004770 0.007783 0.011641 0.016031
0.015526 0.013619 0.009611 0.005654 0.002959 0.001452 0.000674 0.000291 0.000114 0.000041 0.000014 0.000006 0.000004 0.000003 0.000003 0.000004 0.000004 0.000004 0.000004 0.000004 0.000004 0.000005 0.000005 0.000005 0.000005 0.000005 0.000005 0.000005 0.000005 0.000005 0.000005 0.000006 0.000006 0.000006 0.000006 0.000006 0.000006 0.000006 0.000006 0.000006 0.000006 0.000006 0.000006 0.000006 0.000006 0.000006 0.000006 0.000006 0.000006 0.000006 0.000005 0.000005 0.000005 0.000005 0.000005 0.000005 0.000005 0.000005 0.000006 0.000006 0.000006 0.000005 0.000005 0.000005 0.000005 0.000005 0.000005 0.000005 0.000005 0.000005 0.000005 0.000005 0.000005 0.000005 0.000005 0.000005 0.000005 0.000006 0.000006 0.000006 0.000006 0.000006 0.000006 0.000006 0.000006 0.000006 0.000006 0.000006 0.000006 0.000006 0.000006 0.000006 0.000005 0.000005 0.000005 0.000005 0.000005 0.000005 0.000005 0.000005 0.000005 0.000005 0.000005 0.000005 0.000005 0.000004 0.000004 0.000004 0.000004 0.000004 0.000004 0.000003 0.000003 0.000003 0.000003 0.000003 0.000005 0.000013 0.000038 0.000109 0.000290 0.000697 0.001514 0.002983 0.005343 0.008732 0.013076 0.018011
0.017131 0.015061 0.010663 0.006293 0.003296 0.001612 0.000743 0.000318 0.000123 0.000043 0.000013 0.000004 0.000001 0.000001 0.000001 0.000001 0.000001 0.000001 0.000001 0.000001 0.000001 0.000001 0.000001 0.000001 0.000001 0.000001 0.000001 0.000001 0.000001 0.000001 0.000001 0.000001 0.000001 0.000001 0.000001 0.000001 0.000001 0.000001 0.000001 0.000001 0.000001 0.000001 0.000001 0.000001 0.000001 0.000001 0.000001 0.000001 0.000001 0.000001 0.000001 0.000001 0.000001 0.000001 0.000001 0.000001 0.000001 0.000001 0.000001 0.000001 0.000001 0.000001 0.000001 0.000001 0.000001 0.000001 0.000001 0.000001 0.000001 0.000001 0.000001 0.000001 0.000001 0.000001 0.000001 0.000001 0.000001 0.000001 0.000001 0.000001 0.000001 0.000001 0.000001 0.000001 0.000001 0.000001 0.000001 0.000001 0.000001 0.000001 0.000001 0.000001 0.000001 0.000001 0.000001 0.000001 0.000001 0.000001 0.000001 0.000001 0.000001 0.000001 0.000001 0.000001 0.000001 0.000001 0.000001 0.000001 0.000001 0.000001 0.000001 0.000001 0.000001 0.000001 0.000001 0.000001 0.000004 0.000012 0.000040 0.000119 0.000319 0.000770 0.001677 0.003308 0.005933 0.009709 0.014541 0.020022
0.018623 0.016506 0.011751 0.006960 0.003650 0.001781 0.000817 0.000347 0.000134 0.000046 0.000014 0.000004 0.000001 0.000000 0.000000 0.000000 0.000000 0.000000 0.000000 0.000000 0.000000 0.000000 0.000000 0.000000 0.000000 0.000000 0.000000 0.000000 0.000000 0.000000 0.000000 0.000000 0.000000 0.000000 0.000000 0.000000 0.000000 0.000000 0.000000 0.000000 0.000000 0.000000 0.000000 0.000000 0.000000 0.000000 0.000000 0.000000 0.000000 0.000000 0.000000 0.000000 0.000000 0.000000 0.000000 0.000000 0.000000 0.000000 0.000000 0.000000 0.000000 0.000000 0.000000 0.000000 0.000000 0.000000 0.000000 0.000000 0.000000 0.000000 0.000000 0.000000 0.000000 0.000000 0.000000 0.000000 0.000000 0.000000 0.000000 0.000000 0.000000 0.000000 0.000000 0.000000 0.000000 0.000000 0.000000 0.000000 0.000000 0.000000 0.000000 0.000000 0.000000 0.000000 0.000000 0.000000 0.000000 0.000000 0.000000 0.000000 0.000000 0.000000 0.000000 0.000000 0.000000 0.000000 0.000000 0.000000 0.000000 0.000000 0.000000 0.000000 0.000000 0.000000 0.000000 0.000001 0.000003 0.000013 0.000044 0.000131 0.000351 0.000846 0.001844 0.003644 0.006545 0.010717 0.016035 0.022017
0.020155 0.017985 0.012871 0.007652 0.004018 0.001957 0.000894 0.000378 0.000145 0.000050 0.000015 0.000004 0.000001 0.000000 0.000000 0.000000 0.000000 0.000000 0.000000 0.000000 0.000000 0.000000 0.000000 0.000000 0.000000 0.000000 0.000000 0.000000 0.000000 0.000000 0.000000 0.000000 0.000000 0.000000 0.000000 0.000000 0.000000 0.000000 0.000000 0.000000 0.000000 0.000000 0.000000 0.000000 0.000000 0.000000 0.000000 0.000000 0.000000 0.000000 0.000000 0.000000 0.000000 0.000000 0.000000 0.000000 0.000000 0.000000 0.000000 0.000000 0.000000 0.000000 0.000000 0.000000 0.000000 0.000000 0.000000 0.000000 0.000000 0.000000 0.000000 0.000000 0.000000 0.000000 0.000000 0.000000 0.000000 0.000000 0.000000 0.000000 0.000000 0.000000 0.000000 0.000000 0.000000 0.000000 0.000000 0.000000 0.000000 0.000000 0.000000 0.000000 0.000000 0.000000 0.000000 0.000000 0.000000 0.000000 0.000000 0.000000 0.000000 0.000000 0.000000 0.000000 0.000000 0.000000 0.000000 0.000000 0.000000 0.000000 0.000000 0.000000 0.000000 0.000000 0.000000 0.000001 0.000004 0.000014 0.000047 0.000142 0.000383 0.000925 0.002018 0.003990 0.007177 0.011759 0.017570 0.024043
0.021660 0.019484 0.014014 0.008361 0.004398 0.002140 0.000974 0.000409 0.000157 0.000054 0.000016 0.000004 0.000001 0.000000 0.000000 0.000000 0.000000 0.000000 0.000000 0.000000 0.000000 0.000000 0.000000 0.000000 0.000000 0.000000 0.000000 0.000000 0.000000 0.000000 0.000000 0.000000 0.000000 0.000000 0.000000 0.000000 0.000000 0.000000 0.000000 0.000000 0.000000 0.000000 0.000000 0.000000 0.000000 0.000000 0.000000 0.000000 0.000000 0.000000 0.000000 0.000000 0.000000 0.000000 0.000000 0.000000 0.000000 0.000000 0.000000 0.000000 0.000000 0.000000 0.000000 0.000000 0.000000 0.000000 0.000000 0.000000 0.000000 0.000000 0.000000 0.000000 0.000000 0.000000 0.000000 0.000000 0.000000 0.000000 0.000000 0.000000 0.000000 0.000000 0.000000 0.000000 0.000000 0.000000 0.000000 0.000000 0.000000 0.000000 0.000000 0.000000 0.000000 0.000000 0.000000 0.000000 0.000000 0.000000 0.000000 0.000000 0.000000 0.000000 0.000000 0.000000 0.000000 0.000000 0.000000 0.000000 0.000000 0.000000 0.000000 0.000000 0.000000 0.000000 0.000000 0.000001 0.000004 0.000015 0.000051 0.000155 0.000416 0.001006 0.002196 0.004348 0.007828 0.012833 0.019163 0.026171
0.023401 0.021066 0.015185 0.009086 0.004788 0.002330 0.001057 0.000442 0.000169 0.000058 0.000017 0.000005 0.000001 0.000000 0.000000 0.000000 0.000000 0.000000 0.000000 0.000000 0.000000 0.000000 0.000000 0.000000 0.000000 0.000000 0.000000 0.000000 0.000000 0.000000 0.000000 0.000000 0.000000 0.000000 0.000000 0.000000 0.000000 0.000000 0.000000 0.000000 0.000000 0.000000 0.000000 0.000000 0.000000 0.000000 0.000000 0.000000 0.000000 0.000000 0.000000 0.000000 0.000000 0.000000 0.000000 0.000000 0.000000 0.000000 0.000000 0.000000 0.000000 0.000000 0.000000 0.000000 0.000000 0.000000 0.000000 0.000000 0.000000 0.000000 0.000000 0.000000 0.000000 0.000000 0.000000 0.000000 0.000000 0.000000 0.000000 0.000000 0.000000 0.000000 0.000000 0.000000 0.000000 0.000000 0.000000 0.000000 0.000000 0.000000 0.000000 0.000000 0.000000 0.000000 0.000000 0.000000 0.000000 0.000000 0.000000 0.000000 0.000000 0.000000 0.000000 0.000000 0.000000 0.000000 0.000000 0.000000 0.000000 0.000000 0.000000 0.000000 0.000000 0.000000 0.000000 0.000001 0.000004 0.000016 0.000056 0.000167 0.000451 0.001090 0.002380 0.004715 0.008496 0.013940 0.020835 0.028492
0.025515 0.022758 0.016383 0.009822 0.005188 0.002525 0.001143 0.000477 0.000181 0.000062 0.000019 0.000005 0.000001 0.000000 0.000000 0.000000 0.000000 0.000000 0.000000 0.000000 0.000000 0.000000 0.000000 0.000000 0.000000 0.000000 0.000000 0.000000 0.000000 0.000000 0.000000 0.000000 0.000000 0.000000 0.000000 0.000000 0.000000 0.000000 0.000000 0.000000 0.000000 0.000000 0.000000 0.000000 0.000000 0.000000 0.000000 0.000000 0.000000 0.000000 0.000000 0.000000 0.000000 0.000000 0.000000 0.000000 0.000000 0.000000 0.000000 0.000000 0.000000 0.000000 0.000000 0.000000 0.000000 0.000000 0.000000 0.000000 0.000000 0.000000 0.000000 0.000000 0.000000 0.000000 0.000000 0.000000 0.000000 0.000000 0.000000 0.000000 0.000000 0.000000 0.000000 0.000000 0.000000 0.000000 0.000000 0.000000 0.000000 0.000000 0.000000 0.000000 0.000000 0.000000 0.000000 0.000000 0.000000 0.000000 0.000000 0.000000 0.000000 0.000000 0.000000 0.000000 0.000000 0.000000 0.000000 0.000000 0.000000 0.000000 0.000000 0.000000 0.000000 0.000000 0.000000 0.000001 0.000005 0.000018 0.000060 0.000181 0.000486 0.001176 0.002570 0.005093 0.009181 0.015081 0.022601 0.031068
0.027726 0.024484 0.017589 0.010565 0.005596 0.002726 0.001233 0.000513 0.000194 0.000066 0.000020 0.000005 0.000001 0.000000 0.000000 0.000000 0.000000 0.000000 0.000000 0.000000 0.000000 0.000000 0.000000 0.000000 0.000000 0.000000 0.000000 0.000000 0.000000 0.000000 0.000000 0.000000 0.000000 0.000000 0.000000 0.000000 0.000000 0.000000 0.000000 0.000000 0.000000 0.000000 0.000000 0.000000 0.000000 0.000000 0.000000 0.000000 0.000000 0.000000 0.000000 0.000000 0.000000 0.000000 0.000000 0.000000 0.000000 0.000000 0.000000 0.000000 0.000000 0.000000 0.000000 0.000000 0.000000 0.000000 0.000000 0.000000 0.000000 0.000000 0.000000 0.000000 0.000000 0.000000 0.000000 0.000000 0.000000 0.000000 0.000000 0.000000 0.000000 0.000000 0.000000 0.000000 0.000000 0.000000 0.000000 0.000000 0.000000 0.000000 0.000000 0.000000 0.000000 0.000000 0.000000 0.000000 0.000000 0.000000 0.000000 0.000000 0.000000 0.000000 0.000000 0.000000 0.000000 0.000000 0.000000 0.000000 0.000000 0.000000 0.000000 0.000000 0.000000 0.000000 0.000000 0.000001 0.000005 0.000019 0.000065 0.000194 0.000523 0.001265 0.002766 0.005482 0.009885 0.016252 0.024421 0.033728
0.029930 0.026205 0.018795 0.011315 0.006012 0.002934 0.001326 0.000551 0.000208 0.000070 0.000021 0.000006 0.000001 0.000000 0.000000 0.000000 0.000000 0.000000 0.000000 0.000000 0.000000 0.000000 0.000000 0.000000 0.000000 0.000000 0.000000 0.000000 0.000000 0.000000 0.000000 0.000000 0.000000 0.000000 0.000000 0.000000 0.000000 0.000000 0.000000 0.000000 0.000000 0.000000 0.000000 0.000000 0.000000 0.000000 0.000000 0.000000 0.000000 0.000000 0.000000 0.000000 0.000000 0.000000 0.000000 0.000000 0.000000 0.000000 0.000000 0.000000 0.000000 0.000000 0.000000 0.000000 0.000000 0.000000 0.000000 0.000000 0.000000 0.000000 0.000000 0.000000 0.000000 0.000000 0.000000 0.000000 0.000000 0.000000 0.000000 0.000000 0.000000 0.000000 0.000000 0.000000 0.000000 0.000000 0.000000 0.000000 0.000000 0.000000 0.000000 0.000000 0.000000 0.000000 0.000000 0.000000 0.000000 0.000000 0.000000 0.000000 0.000000 0.000000 0.000000 0.000000 0.000000 0.000000 0.000000 0.000000 0.000000 0.000000 0.000000 0.000000 0.000000 0.000000 0.000000 0.000001 0.000005 0.000020 0.000069 0.000208 0.000561 0.001357 0.002968 0.005884 0.010609 0.017454 0.026286 0.036452
0.032135 0.027933 0.020011 0.012076 0.006437 0.003148 0.001423 0.000590 0.000222 0.000075 0.000022 0.000006 0.000001 0.000000 0.000000 0.000000 0.000000 0.000000 0.000000 0.000000 0.000000 0.000000 0.000000 0.000000 0.000000 0.000000 0.000000 0.000000 0.000000 0.000000 0.000000 0.000000 0.000000 0.000000 0.000000 0.000000 0.000000 0.000000 0.000000 0.000000 0.000000 0.000000 0.000000 0.000000 0.000000 0.000000 0.000000 0.000000 0.000000 0.000000 0.000000 0.000000 0.000000 0.000000 0.000000 0.000000 0.000000 0.000000 0.000000 0.000000 0.000000 0.000000 0.000000 0.000000 0.000000 0.000000 0.000000 0.000000 0.000000 0.000000 0.000000 0.000000 0.000000 0.000000 0.000000 0.000000 0.000000 0.000000 0.000000 0.000000 0.000000 0.000000 0.000000 0.000000 0.000000 0.000000 0.000000 0.000000 0.000000 0.000000 0.000000 0.000000 0.000000 0.000000 0.000000 0.000000 0.000000 0.000000 0.000000 0.000000 0.000000 0.000000 0.000000 0.000000 0.000000 0.000000 0.000000 0.000000 0.000000 0.000000 0.000000 0.000000 0.000000 0.000000 0.000000 0.000001 0.000006 0.000022 0.000074 0.000223 0.000600 0.001453 0.003177 0.006298 0.011356 0.018690 0.028186 0.039182
0.034336 0.029684 0.021253 0.012857 0.006876 0.003369 0.001524 0.000631 0.000237 0.000080 0.000024 0.000006 0.000001 0.000000 0.000000 0.000000 0.000000 0.000000 0.000000 0.000000 0.000000 0.000000 0.000000 0.000000 0.000000 0.000000 0.000000 0.000000 0.000000 0.000000 0.000000 0.000000 0.000000 0.000000 0.000000 0.000000 0.000000 0.000000 0.000000 0.000000 0.000000 0.000000 0.000000 0.000000 0.000000 0.000000 0.000000 0.000000 0.000000 0.000000 0.000000 0.000000 0.000000 0.000000 0.000000 0.000000 0.000000 0.000000 0.000000 0.000000 0.000000 0.000000 0.000000 0.000000 0.000000 0.000000 0.000000 0.000000 0.000000 0.000000 0.000000 0.000000 0.000000 0.000000 0.000000 0.000000 0.000000 0.000000 0.000000 0.000000 0.000000 0.000000 0.000000 0.000000 0.000000 0.000000 0.000000 0.000000 0.000000 0.000000 0.000000 0.000000 0.000000 0.000000 0.000000 0.000000 0.000000 0.000000 0.000000 0.000000 0.000000 0.000000 0.000000 0.000000 0.000000 0.000000 0.000000 0.000000 0.000000 0.000000 0.000000 0.000000 0.000000 0.000000 0.000000 0.000001 0.000006 0.000023 0.000079 0.000238 0.000641 0.001552 0.003394 0.006728 0.012131 0.019972 0.030150 0.041985
0.036553 0.031487 0.022541 0.013666 0.007330 0.003599 0.001629 0.000674 0.000253 0.000085 0.000025 0.000007 0.000002 0.000000 0.000000 0.000000 0.000000 0.000000 0.000000 0.000000 0.000000 0.000000 0.000000 0.000000 0.000000 0.000000 0.000000 0.000000 0.000000 0.000000 0.000000 0.000000 0.000000 0.000000 0.000000 0.000000 0.000000 0.000000 0.000000 0.000000 0.000000 0.000000 0.000000 0.000000 0.000000 0.000000 0.000000 0.000000 0.000000 0.000000 0.000000 0.000000 0.000000 0.000000 0.000000 0.000000 0.000000 0.000000 0.000000 0.000000 0.000000 0.000000 0.000000 0.000000 0.000000 0.000000 0.000000 0.000000 0.000000 0.000000 0.000000 0.000000 0.000000 0.000000 0.000000 0.000000 0.000000 0.000000 0.000000 0.000000 0.000000 0.000000 0.000000 0.000000 0.000000 0.000000 0.000000 0.000000 0.000000 0.000000 0.000000 0.000000 0.000000 0.000000 0.000000 0.000000 0.000000 0.000000 0.000000 0.000000 0.000000 0.000000 0.000000 0.000000 0.000000 0.000000 0.000000 0.000000 0.000000 0.000000 0.000000 0.000000 0.000000 0.000000 0.000000 0.000001 0.000006 0.000025 0.000084 0.000254 0.000683 0.001655 0.003620 0.007177 0.012943 0.021315 0.032197 0.044874
0.038971 0.033408 0.023897 0.014513 0.007804 0.003839 0.001738 0.000719 0.000269 0.000091 0.000027 0.000007 0.000002 0.000000 0.000000 0.000000 0.000000 0.000000 0.000000 0.000000 0.000000 0.000000 0.000000 0.000000 0.000000 0.000000 0.000000 0.000000 0.000000 0.000000 0.000000 0.000000 0.000000 0.000000 0.000000 0.000000 0.000000 0.000000 0.000000 0.000000 0.000000 0.000000 0.000000 0.000000 0.000000 0.000000 0.000000 0.000000 0.000000 0.000000 0.000000 0.000000 0.000000 0.000000 0.000000 0.000000 0.000000 0.000000 0.000000 0.000000 0.000000 0.000000 0.000000 0.000000 0.000000 0.000000 0.000000 0.000000 0.000000 0.000000 0.000000 0.000000 0.000000 0.000000 0.000000 0.000000 0.000000 0.000000 0.000000 0.000000 0.000000 0.000000 0.000000 0.000000 0.000000 0.000000 0.000000 0.000000 0.000000 0.000000 0.000000 0.000000 0.000000 0.000000 0.000000 0.000000 0.000000 0.000000 0.000000 0.000000 0.000000 0.000000 0.000000 0.000000 0.000000 0.000000 0.000000 0.000000 0.000000 0.000000 0.000000 0.000000 0.000000 0.000000 0.000000 0.000002 0.000007 0.000026 0.000090 0.000270 0.000728 0.001763 0.003856 0.007647 0.013795 0.022729 0.034346 0.047885
0.041564 0.035454 0.025331 0.015403 0.008300 0.004089 0.001852 0.000766 0.000287 0.000096 0.000029 0.000008 0.000002 0.000000 0.000000 0.000000 0.000000 0.000000 0.000000 0.000000 0.000000 0.000000 0.000000 0.000000 0.000000 0.000000 0.000000 0.000000 0.000000 0.000000 0.000000 0.000000 0.000000 0.000000 0.000000 0.000000 0.000000 0.000000 0.000000 0.000000 0.000000 0.000000 0.000000 0.000000 0.000000 0.000000 0.000000 0.000000 0.000000 0.000000 0.000000 0.000000 0.000000 0.000000 0.000000 0.000000 0.000000 0.000000 0.000000 0.000000 0.000000 0.000000 0.000000 0.000000 0.000000 0.000000 0.000000 0.000000 0.000000 0.000000 0.000000 0.000000 0.000000 0.000000 0.000000 0.000000 0.000000 0.000000 0.000000 0.000000 0.000000 0.000000 0.000000 0.000000 0.000000 0.000000 0.000000 0.000000 0.000000 0.000000 0.000000 0.000000 0.000000 0.000000 0.000000 0.000000 0.000000 0.000000 0.000000 0.000000 0.000000 0.000000 0.000000 0.000000 0.000000 0.000000 0.000000 0.000000 0.000000 0.000000 0.000000 0.000000 0.000000 0.000000 0.000000 0.000002 0.000007 0.000028 0.000095 0.000287 0.000774 0.001876 0.004103 0.008139 0.014690 0.024217 0.036610 0.051055