# vtk DataFile Version 2.0
test
ASCII
DATASET STRUCTURED_POINTS
DIMENSIONS 128 128 1
ORIGIN 0 0 0
SPACING 1 1 1
POINT_DATA 16384
SCALARS values float
LOOKUP_TABLE default
0.000301 0.000351 -0.000376 0.000042 0.000279 0.001579 0.002238 0.003603 0.004001 0.005059 0.006226 0.007673 0.008972 0.010132 0.011855 0.013035 0.014248 0.015769 0.016805 0.018024 0.019107 0.020021 0.021210 0.021978 0.022822 0.023804 0.024474 0.025293 0.026175 0.026849 0.027592 0.028446 0.029095 0.029876 0.030657 0.031301 0.031919 0.032538 0.032940 0.033275 0.033583 0.033796 0.033868 0.033897 0.033859 0.033630 0.033184 0.032646 0.032091 0.031333 0.030403 0.029949 0.030881 0.032583 0.032503 0.030710 0.030900 0.032091 0.031495 0.031861 0.032262 0.032115 0.032957 0.032920 0.033525 0.033911 0.034465 0.034964 0.035482 0.035987 0.036633 0.037170 0.037836 0.038409 0.039097 0.039625 0.040207 0.040692 0.041231 0.041732 0.042112 0.042539 0.042899 0.043324 0.043638 0.043912 0.044215 0.044417 0.044613 0.044658 0.044624 0.044576 0.044336 0.044046 0.043624 0.043083 0.042546 0.041825 0.041059 0.040280 0.039340 0.038421 0.037405 0.036251 0.035145 0.033947 0.032688 0.031394 0.029924 0.028418 0.026914 0.025286 0.023585 0.021832 0.019959 0.018059 0.016138 0.014114 0.012034 0.009887 0.007644 0.005492 0.003621 0.002078 0.000906 0.000199 -0.000047 0.000050
-0.001650 -0.000230 0.000267 0.000791 0.001316 0.002140 0.002889 0.003795 0.004515 0.005421 0.006433 0.007566 0.008696 0.009820 0.011071 0.012198 0.013312 0.014469 0.015493 0.016514 0.017471 0.018359 0.019268 0.020050 0.020814 0.021579 0.022252 0.022934 0.023610 0.024220 0.024827 0.025443 0.026000 0.026571 0.027125 0.027624 0.028086 0.028509 0.028840 0.029108 0.029325 0.029473 0.029539 0.029541 0.029464 0.029271 0.028953 0.028554 0.028105 0.027596 0.027116 0.026926 0.027254 0.027788 0.027770 0.027263 0.027245 0.027541 0.027483 0.027623 0.027800 0.027894 0.028219 0.028389 0.028713 0.029023 0.029387 0.029754 0.030137 0.030532 0.030972 0.031402 0.031868 0.032319 0.032791 0.033219 0.033644 0.034036 0.034427 0.034793 0.035113 0.035427 0.035714 0.036000 0.036244 0.036456 0.036652 0.036799 0.036906 0.036936 0.036903 0.036815 0.036631 0.036376 0.036034 0.035612 0.035137 0.034571 0.033948 0.033279 0.032535 0.031754 0.030912 0.030003 0.029070 0.028086 0.027051 0.025966 0.024800 0.023587 0.022337 0.021023 0.019650 0.018225 0.016736 0.015208 0.013645 0.012031 0.010379 0.008699 0.007015 0.005412 0.003984 0.002775 0.001804 0.001071 0.000494 -0.000106
-0.000636 0.000175 0.000813 0.001373 0.001920 0.002527 0.003168 0.003850 0.004546 0.005311 0.006156 0.007066 0.008009 0.008973 0.009960 0.010926 0.011874 0.012806 0.013694 0.014547 0.015358 0.016128 0.016865 0.017552 0.018202 0.018823 0.019404 0.019961 0.020494 0.020995 0.021474 0.021935 0.022371 0.022790 0.023188 0.023555 0.023889 0.024186 0.024433 0.024633 0.024788 0.024893 0.024942 0.024935 0.024863 0.024714 0.024489 0.024205 0.023882 0.023550 0.023276 0.023156 0.023229 0.023360 0.023346 0.023212 0.023166 0.023210 0.023236 0.023295 0.023381 0.023483 0.023632 0.023790 0.023984 0.024202 0.024443 0.024701 0.024973 0.025261 0.025567 0.025885 0.026214 0.026546 0.026879 0.027201 0.027511 0.027808 0.028093 0.028361 0.028608 0.028839 0.029055 0.029255 0.029433 0.029588 0.029718 0.029817 0.029877 0.029890 0.029853 0.029764 0.029615 0.029406 0.029133 0.028802 0.028414 0.027969 0.027472 0.026928 0.026336 0.025702 0.025023 0.024302 0.023545 0.022751 0.021917 0.021039 0.020114 0.019149 0.018145 0.017099 0.016010 0.014881 0.013712 0.012512 0.011285 0.010035 0.008771 0.007510 0.006279 0.005123 0.004087 0.003191 0.002429 0.001757 0.001070 0.000198
-0.000467 0.000602 0.001330 0.001864 0.002318 0.002763 0.003232 0.003738 0.004289 0.004898 0.005567 0.006288 0.007044 0.007821 0.008609 0.009392 0.010162 0.010913 0.011637 0.012330 0.012992 0.013620 0.014216 0.014776 0.015304 0.015802 0.016270 0.016710 0.017126 0.017515 0.017882 0.018227 0.018551 0.018855 0.019139 0.019400 0.019636 0.019844 0.020020 0.020164 0.020275 0.020349 0.020384 0.020377 0.020324 0.020219 0.020065 0.019872 0.019655 0.019442 0.019268 0.019172 0.019155 0.019166 0.019144 0.019091 0.019054 0.019047 0.019055 0.019080 0.019123 0.019185 0.019267 0.019368 0.019490 0.019631 0.019788 0.019961 0.020147 0.020345 0.020557 0.020779 0.021009 0.021243 0.021478 0.021709 0.021932 0.022148 0.022353 0.022547 0.022727 0.022895 0.023051 0.023192 0.023318 0.023425 0.023512 0.023575 0.023609 0.023609 0.023572 0.023495 0.023375 0.023210 0.022998 0.022741 0.022439 0.022094 0.021707 0.021281 0.020818 0.020319 0.019786 0.019221 0.018625 0.017998 0.017340 0.016650 0.015927 0.015173 0.014388 0.013573 0.012728 0.011855 0.010958 0.010042 0.009115 0.008184 0.007261 0.006364 0.005516 0.004740 0.004057 0.003467 0.002943 0.002423 0.001803 0.000941
0.000286 0.001261 0.001915 0.002344 0.002649 0.002914 0.003193 0.003512 0.003887 0.004322 0.004815 0.005357 0.005935 0.006536 0.007148 0.007759 0.008362 0.008949 0.009517 0.010061 0.010580 0.011073 0.011538 0.011977 0.012388 0.012774 0.013134 0.013471 0.013785 0.014077 0.014349 0.014602 0.014836 0.015053 0.015252 0.015434 0.015597 0.015741 0.015864 0.015964 0.016042 0.016095 0.016121 0.016119 0.016084 0.016016 0.015916 0.015790 0.015651 0.015515 0.015401 0.015325 0.015285 0.015262 0.015235 0.015202 0.015173 0.015156 0.015150 0.015155 0.015173 0.015203 0.015248 0.015306 0.015378 0.015464 0.015562 0.015673 0.015794 0.015926 0.016068 0.016218 0.016374 0.016534 0.016696 0.016856 0.017013 0.017165 0.017310 0.017447 0.017575 0.017693 0.017802 0.017900 0.017987 0.018059 0.018116 0.018154 0.018172 0.018165 0.018132 0.018070 0.017976 0.017850 0.017689 0.017495 0.017267 0.017006 0.016713 0.016389 0.016036 0.015655 0.015247 0.014814 0.014356 0.013875 0.013370 0.012840 0.012287 0.011711 0.011113 0.010493 0.009854 0.009198 0.008530 0.007857 0.007186 0.006529 0.005901 0.005318 0.004798 0.004357 0.003999 0.003712 0.003459 0.003169 0.002739 0.002033
0.000962 0.002046 0.002608 0.002872 0.002988 0.003053 0.003128 0.003252 0.003440 0.003697 0.004019 0.004394 0.004809 0.005250 0.005705 0.006163 0.006618 0.007062 0.007491 0.007904 0.008296 0.008669 0.009020 0.009351 0.009660 0.009948 0.010217 0.010466 0.010696 0.010909 0.011105 0.011285 0.011450 0.011601 0.011739 0.011863 0.011974 0.012072 0.012156 0.012225 0.012279 0.012317 0.012337 0.012338 0.012318 0.012276 0.012215 0.012137 0.012051 0.011965 0.011891 0.011834 0.011794 0.011765 0.011739 0.011714 0.011691 0.011673 0.011661 0.011657 0.011660 0.011672 0.011693 0.011723 0.011763 0.011812 0.011871 0.011939 0.012015 0.012099 0.012190 0.012288 0.012392 0.012498 0.012607 0.012715 0.012822 0.012926 0.013026 0.013120 0.013209 0.013290 0.013365 0.013431 0.013489 0.013536 0.013572 0.013595 0.013603 0.013594 0.013566 0.013518 0.013447 0.013353 0.013235 0.013092 0.012924 0.012732 0.012516 0.012277 0.012015 0.011732 0.011429 0.011106 0.010764 0.010405 0.010027 0.009632 0.009220 0.008792 0.008348 0.007890 0.007421 0.006944 0.006465 0.005992 0.005536 0.005110 0.004731 0.004416 0.004182 0.004038 0.003985 0.004001 0.004046 0.004050 0.003914 0.003511
0.002618 0.003165 0.003437 0.003479 0.003378 0.003228 0.003094 0.003019 0.003023 0.003108 0.003268 0.003490 0.003759 0.004061 0.004381 0.004710 0.005039 0.005363 0.005677 0.005978 0.006265 0.006537 0.006794 0.007034 0.007259 0.007468 0.007661 0.007840 0.008004 0.008154 0.008292 0.008418 0.008532 0.008635 0.008729 0.008812 0.008887 0.008952 0.009008 0.009055 0.009092 0.009118 0.009134 0.009137 0.009126 0.009103 0.009066 0.009020 0.008968 0.008915 0.008867 0.008826 0.008794 0.008769 0.008747 0.008727 0.008708 0.008693 0.008680 0.008672 0.008669 0.008671 0.008678 0.008692 0.008712 0.008739 0.008772 0.008812 0.008858 0.008909 0.008967 0.009029 0.009095 0.009164 0.009235 0.009307 0.009378 0.009447 0.009514 0.009577 0.009637 0.009692 0.009741 0.009785 0.009823 0.009853 0.009875 0.009888 0.009890 0.009881 0.009859 0.009823 0.009771 0.009703 0.009618 0.009516 0.009396 0.009259 0.009104 0.008932 0.008744 0.008540 0.008321 0.008087 0.007840 0.007579 0.007305 0.007019 0.006720 0.006411 0.006091 0.005764 0.005431 0.005098 0.004772 0.004461 0.004181 0.003946 0.003775 0.003689 0.003703 0.003827 0.004059 0.004377 0.004739 0.005081 0.005318 0.005353
0.003794 0.004277 0.004350 0.004161 0.003833 0.003464 0.003123 0.002855 0.002681 0.002606 0.002619 0.002706 0.002851 0.003035 0.003244 0.003466 0.003694 0.003920 0.004141 0.004354 0.004557 0.004749 0.004930 0.005100 0.005258 0.005404 0.005540 0.005664 0.005778 0.005882 0.005977 0.006062 0.006140 0.006209 0.006272 0.006327 0.006376 0.006419 0.006456 0.006487 0.006512 0.006530 0.006541 0.006544 0.006539 0.006526 0.006506 0.006479 0.006448 0.006416 0.006385 0.006357 0.006334 0.006314 0.006297 0.006281 0.006267 0.006254 0.006243 0.006235 0.006229 0.006227 0.006228 0.006233 0.006242 0.006255 0.006273 0.006295 0.006322 0.006353 0.006388 0.006426 0.006468 0.006512 0.006557 0.006603 0.006649 0.006694 0.006738 0.006779 0.006818 0.006854 0.006886 0.006915 0.006938 0.006957 0.006970 0.006977 0.006977 0.006969 0.006952 0.006926 0.006889 0.006842 0.006782 0.006711 0.006628 0.006532 0.006424 0.006305 0.006173 0.006031 0.005877 0.005713 0.005539 0.005356 0.005163 0.004962 0.004753 0.004536 0.004313 0.004087 0.003861 0.003641 0.003434 0.003254 0.003114 0.003034 0.003037 0.003145 0.003376 0.003742 0.004242 0.004856 0.005543 0.006246 0.006893 0.007406
0.005335 0.005515 0.005332 0.004907 0.004353 0.003769 0.003228 0.002777 0.002440 0.002218 0.002102 0.002074 0.002113 0.002201 0.002322 0.002461 0.002609 0.002760 0.002909 0.003054 0.003192 0.003324 0.003448 0.003564 0.003671 0.003771 0.003864 0.003948 0.004025 0.004095 0.004159 0.004216 0.004267 0.004313 0.004354 0.004390 0.004422 0.004450 0.004474 0.004494 0.004510 0.004522 0.004529 0.004532 0.004530 0.004523 0.004511 0.004496 0.004478 0.004458 0.004439 0.004420 0.004404 0.004389 0.004377 0.004365 0.004355 0.004345 0.004337 0.004329 0.004324 0.004320 0.004318 0.004319 0.004322 0.004329 0.004338 0.004350 0.004365 0.004383 0.004404 0.004427 0.004453 0.004480 0.004508 0.004537 0.004566 0.004595 0.004623 0.004649 0.004674 0.004697 0.004717 0.004735 0.004750 0.004761 0.004769 0.004772 0.004771 0.004765 0.004752 0.004734 0.004709 0.004676 0.004636 0.004587 0.004531 0.004466 0.004394 0.004313 0.004224 0.004127 0.004023 0.003911 0.003793 0.003668 0.003537 0.003400 0.003258 0.003112 0.002962 0.002813 0.002668 0.002533 0.002419 0.002339 0.002311 0.002357 0.002504 0.002777 0.003200 0.003786 0.004538 0.005437 0.006446 0.007515 0.008583 0.009599
0.006873 0.006772 0.006349 0.005698 0.004928 0.004139 0.003409 0.002788 0.002301 0.001950 0.001721 0.001596 0.001551 0.001563 0.001614 0.001689 0.001778 0.001873 0.001969 0.002064 0.002155 0.002242 0.002324 0.002401 0.002472 0.002538 0.002599 0.002655 0.002706 0.002752 0.002794 0.002831 0.002865 0.002894 0.002921 0.002944 0.002964 0.002982 0.002997 0.003009 0.003019 0.003026 0.003031 0.003033 0.003032 0.003028 0.003022 0.003013 0.003003 0.002991 0.002978 0.002967 0.002956 0.002946 0.002937 0.002928 0.002921 0.002914 0.002908 0.002902 0.002898 0.002894 0.002892 0.002891 0.002892 0.002894 0.002899 0.002905 0.002914 0.002924 0.002936 0.002950 0.002965 0.002982 0.002999 0.003017 0.003035 0.003053 0.003070 0.003087 0.003102 0.003117 0.003129 0.003140 0.003149 0.003156 0.003160 0.003161 0.003160 0.003155 0.003146 0.003134 0.003117 0.003095 0.003068 0.003037 0.003000 0.002957 0.002910 0.002857 0.002798 0.002735 0.002666 0.002593 0.002515 0.002433 0.002346 0.002256 0.002163 0.002068 0.001972 0.001879 0.001794 0.001723 0.001678 0.001676 0.001735 0.001884 0.002151 0.002567 0.003160 0.003949 0.004937 0.006110 0.007433 0.008855 0.010320 0.011781
0.008261 0.007982 0.007366 0.006515 0.005545 0.004565 0.003659 0.002881 0.002258 0.001791 0.001467 0.001260 0.001146 0.001099 0.001099 0.001127 0.001173 0.001227 0.001286 0.001345 0.001403 0.001458 0.001511 0.001560 0.001606 0.001648 0.001687 0.001723 0.001755 0.001785 0.001812 0.001835 0.001857 0.001876 0.001892 0.001907 0.001919 0.001930 0.001939 0.001947 0.001953 0.001957 0.001960 0.001961 0.001961 0.001958 0.001955 0.001950 0.001944 0.001936 0.001929 0.001921 0.001914 0.001907 0.001901 0.001896 0.001891 0.001886 0.001882 0.001878 0.001875 0.001872 0.001870 0.001869 0.001868 0.001869 0.001871 0.001875 0.001879 0.001885 0.001892 0.001900 0.001910 0.001919 0.001930 0.001940 0.001951 0.001962 0.001973 0.001983 0.001992 0.002001 0.002008 0.002015 0.002020 0.002024 0.002026 0.002027 0.002025 0.002022 0.002016 0.002008 0.001997 0.001983 0.001966 0.001945 0.001922 0.001895 0.001864 0.001831 0.001794 0.001753 0.001710 0.001663 0.001613 0.001561 0.001506 0.001449 0.001390 0.001331 0.001274 0.001221 0.001178 0.001154 0.001161 0.001217 0.001346 0.001579 0.001948 0.002490 0.003237 0.004213 0.005426 0.006863 0.008490 0.010250 0.012075 0.013887
0.009471 0.009124 0.008370 0.007349 0.006197 0.005038 0.003967 0.003043 0.002296 0.001726 0.001317 0.001043 0.000874 0.000782 0.000742 0.000736 0.000751 0.000778 0.000811 0.000846 0.000881 0.000914 0.000947 0.000977 0.001006 0.001032 0.001056 0.001079 0.001099 0.001117 0.001134 0.001149 0.001162 0.001173 0.001183 0.001192 0.001200 0.001206 0.001212 0.001216 0.001220 0.001222 0.001224 0.001224 0.001224 0.001223 0.001221 0.001218 0.001214 0.001210 0.001205 0.001201 0.001196 0.001192 0.001188 0.001184 0.001181 0.001178 0.001175 0.001173 0.001170 0.001169 0.001167 0.001166 0.001166 0.001166 0.001167 0.001168 0.001171 0.001174 0.001178 0.001183 0.001188 0.001194 0.001200 0.001206 0.001213 0.001219 0.001225 0.001231 0.001237 0.001242 0.001246 0.001250 0.001253 0.001255 0.001257 0.001257 0.001255 0.001253 0.001249 0.001244 0.001237 0.001228 0.001218 0.001205 0.001190 0.001174 0.001155 0.001134 0.001112 0.001087 0.001060 0.001031 0.001001 0.000969 0.000935 0.000900 0.000865 0.000830 0.000798 0.000773 0.000760 0.000770 0.000815 0.000917 0.001102 0.001404 0.001863 0.002518 0.003408 0.004562 0.005992 0.007686 0.009610 0.011703 0.013885 0.016067
0.010600 0.010237 0.009377 0.008202 0.006880 0.005551 0.004323 0.003261 0.002398 0.001734 0.001251 0.000919 0.000705 0.000576 0.000508 0.000478 0.000472 0.000479 0.000495 0.000513 0.000533 0.000553 0.000572 0.000591 0.000608 0.000623 0.000638 0.000651 0.000664 0.000675 0.000685 0.000693 0.000701 0.000708 0.000714 0.000720 0.000724 0.000728 0.000731 0.000733 0.000735 0.000737 0.000737 0.000738 0.000737 0.000737 0.000736 0.000734 0.000732 0.000729 0.000727 0.000724 0.000721 0.000718 0.000716 0.000714 0.000712 0.000710 0.000708 0.000707 0.000705 0.000704 0.000703 0.000702 0.000702 0.000702 0.000702 0.000703 0.000704 0.000706 0.000708 0.000711 0.000714 0.000717 0.000721 0.000724 0.000728 0.000732 0.000735 0.000739 0.000742 0.000745 0.000748 0.000750 0.000751 0.000753 0.000753 0.000753 0.000752 0.000751 0.000748 0.000745 0.000741 0.000735 0.000729 0.000721 0.000713 0.000703 0.000692 0.000679 0.000666 0.000651 0.000635 0.000618 0.000600 0.000581 0.000561 0.000541 0.000521 0.000502 0.000488 0.000481 0.000489 0.000523 0.000597 0.000735 0.000966 0.001329 0.001867 0.002627 0.003653 0.004979 0.006621 0.008571 0.010792 0.013221 0.015772 0.018343
0.011817 0.011386 0.010412 0.009087 0.007596 0.006100 0.004717 0.003522 0.002549 0.001797 0.001246 0.000863 0.000610 0.000453 0.000362 0.000315 0.000294 0.000289 0.000293 0.000302 0.000312 0.000323 0.000334 0.000344 0.000354 0.000363 0.000372 0.000379 0.000387 0.000393 0.000399 0.000404 0.000408 0.000412 0.000416 0.000419 0.000421 0.000424 0.000425 0.000427 0.000428 0.000428 0.000429 0.000429 0.000429 0.000428 0.000427 0.000427 0.000425 0.000424 0.000422 0.000421 0.000419 0.000418 0.000416 0.000415 0.000414 0.000413 0.000412 0.000411 0.000410 0.000409 0.000408 0.000408 0.000408 0.000408 0.000408 0.000408 0.000409 0.000410 0.000411 0.000413 0.000414 0.000416 0.000418 0.000420 0.000422 0.000424 0.000426 0.000428 0.000430 0.000432 0.000433 0.000434 0.000435 0.000436 0.000436 0.000436 0.000435 0.000434 0.000433 0.000431 0.000428 0.000425 0.000421 0.000417 0.000412 0.000406 0.000400 0.000393 0.000385 0.000376 0.000367 0.000357 0.000347 0.000336 0.000325 0.000314 0.000304 0.000296 0.000292 0.000298 0.000321 0.000372 0.000468 0.000635 0.000906 0.001323 0.001936 0.002796 0.003954 0.005449 0.007303 0.009511 0.012036 0.014813 0.017752 0.020754
0.012980 0.012583 0.011504 0.010016 0.008349 0.006682 0.005145 0.003817 0.002736 0.001900 0.001285 0.000855 0.000568 0.000387 0.000278 0.000217 0.000187 0.000173 0.000170 0.000172 0.000176 0.000182 0.000188 0.000194 0.000199 0.000204 0.000209 0.000213 0.000217 0.000221 0.000224 0.000227 0.000229 0.000232 0.000234 0.000235 0.000237 0.000238 0.000239 0.000239 0.000240 0.000240 0.000240 0.000240 0.000240 0.000240 0.000240 0.000239 0.000238 0.000238 0.000237 0.000236 0.000235 0.000234 0.000233 0.000233 0.000232 0.000231 0.000231 0.000230 0.000230 0.000229 0.000229 0.000229 0.000228 0.000228 0.000228 0.000229 0.000229 0.000230 0.000230 0.000231 0.000232 0.000233 0.000234 0.000235 0.000236 0.000237 0.000238 0.000240 0.000241 0.000241 0.000242 0.000243 0.000243 0.000244 0.000244 0.000243 0.000243 0.000243 0.000242 0.000240 0.000239 0.000237 0.000235 0.000233 0.000230 0.000227 0.000223 0.000219 0.000215 0.000210 0.000205 0.000200 0.000194 0.000188 0.000182 0.000177 0.000172 0.000171 0.000175 0.000189 0.000222 0.000286 0.000400 0.000592 0.000899 0.001367 0.002051 0.003009 0.004297 0.005963 0.008033 0.010504 0.013342 0.016481 0.019828 0.023275
0.014525 0.013946 0.012681 0.011001 0.009143 0.007297 0.005601 0.004139 0.002949 0.002030 0.001353 0.000878 0.000561 0.000358 0.000234 0.000163 0.000125 0.000106 0.000098 0.000096 0.000097 0.000099 0.000102 0.000105 0.000108 0.000111 0.000113 0.000115 0.000118 0.000120 0.000121 0.000123 0.000124 0.000125 0.000126 0.000127 0.000128 0.000129 0.000129 0.000129 0.000130 0.000130 0.000130 0.000130 0.000130 0.000130 0.000129 0.000129 0.000129 0.000128 0.000128 0.000127 0.000127 0.000126 0.000126 0.000126 0.000125 0.000125 0.000125 0.000124 0.000124 0.000124 0.000124 0.000124 0.000123 0.000123 0.000123 0.000123 0.000124 0.000124 0.000124 0.000125 0.000125 0.000126 0.000126 0.000127 0.000128 0.000128 0.000129 0.000129 0.000130 0.000130 0.000131 0.000131 0.000131 0.000131 0.000131 0.000131 0.000131 0.000131 0.000130 0.000130 0.000129 0.000128 0.000127 0.000125 0.000124 0.000122 0.000120 0.000118 0.000116 0.000113 0.000110 0.000108 0.000105 0.000101 0.000099 0.000096 0.000096 0.000098 0.000107 0.000127 0.000167 0.000242 0.000371 0.000586 0.000927 0.001444 0.002198 0.003253 0.004674 0.006513 0.008802 0.011544 0.014707 0.018227 0.022009 0.025941
0.016304 0.015443 0.013943 0.012044 0.009979 0.007943 0.006081 0.004482 0.003183 0.002180 0.001441 0.000923 0.000575 0.000352 0.000215 0.000136 0.000092 0.000069 0.000058 0.000053 0.000052 0.000052 0.000053 0.000055 0.000056 0.000058 0.000059 0.000060 0.000061 0.000062 0.000063 0.000064 0.000065 0.000065 0.000066 0.000066 0.000067 0.000067 0.000067 0.000067 0.000068 0.000068 0.000068 0.000068 0.000068 0.000067 0.000067 0.000067 0.000067 0.000067 0.000067 0.000066 0.000066 0.000066 0.000066 0.000065 0.000065 0.000065 0.000065 0.000065 0.000065 0.000065 0.000064 0.000064 0.000064 0.000064 0.000064 0.000064 0.000064 0.000064 0.000065 0.000065 0.000065 0.000065 0.000066 0.000066 0.000066 0.000067 0.000067 0.000067 0.000068 0.000068 0.000068 0.000068 0.000068 0.000068 0.000068 0.000068 0.000068 0.000068 0.000068 0.000067 0.000067 0.000066 0.000066 0.000065 0.000064 0.000063 0.000062 0.000061 0.000060 0.000059 0.000057 0.000056 0.000054 0.000053 0.000052 0.000051 0.000053 0.000058 0.000069 0.000094 0.000140 0.000224 0.000367 0.000604 0.000977 0.001543 0.002367 0.003522 0.005077 0.007093 0.009608 0.012628 0.016127 0.020041 0.024289 0.028787
0.018042 0.016991 0.015266 0.013137 0.010852 0.008618 0.006585 0.004844 0.003432 0.002343 0.001543 0.000981 0.000603 0.000361 0.000212 0.000124 0.000075 0.000049 0.000036 0.000030 0.000028 0.000027 0.000027 0.000028 0.000028 0.000029 0.000030 0.000030 0.000031 0.000031 0.000032 0.000032 0.000033 0.000033 0.000033 0.000033 0.000034 0.000034 0.000034 0.000034 0.000034 0.000034 0.000034 0.000034 0.000034 0.000034 0.000034 0.000034 0.000034 0.000033 0.000033 0.000033 0.000033 0.000033 0.000033 0.000033 0.000033 0.000033 0.000033 0.000032 0.000032 0.000032 0.000032 0.000032 0.000032 0.000032 0.000032 0.000032 0.000032 0.000032 0.000032 0.000033 0.000033 0.000033 0.000033 0.000033 0.000033 0.000033 0.000034 0.000034 0.000034 0.000034 0.000034 0.000034 0.000034 0.000034 0.000034 0.000034 0.000034 0.000034 0.000034 0.000034 0.000033 0.000033 0.000033 0.000033 0.000032 0.000032 0.000031 0.000031 0.000030 0.000029 0.000029 0.000028 0.000027 0.000027 0.000027 0.000027 0.000030 0.000036 0.000050 0.000078 0.000129 0.000221 0.000378 0.000636 0.001042 0.001657 0.002553 0.003809 0.005502 0.007700 0.010446 0.013753 0.017593 0.021907 0.026610 0.031613
0.019885 0.018596 0.016636 0.014272 0.011761 0.009321 0.007110 0.005222 0.003694 0.002518 0.001654 0.001047 0.000640 0.000378 0.000217 0.000122 0.000069 0.000040 0.000025 0.000018 0.000015 0.000014 0.000013 0.000014 0.000014 0.000014 0.000014 0.000015 0.000015 0.000015 0.000015 0.000016 0.000016 0.000016 0.000016 0.000016 0.000016 0.000016 0.000016 0.000016 0.000016 0.000016 0.000016 0.000016 0.000016 0.000016 0.000016 0.000016 0.000016 0.000016 0.000016 0.000016 0.000016 0.000016 0.000016 0.000016 0.000016 0.000016 0.000016 0.000016 0.000016 0.000016 0.000016 0.000016 0.000016 0.000016 0.000016 0.000016 0.000016 0.000016 0.000016 0.000016 0.000016 0.000016 0.000016 0.000016 0.000016 0.000016 0.000016 0.000016 0.000016 0.000016 0.000016 0.000016 0.000017 0.000017 0.000017 0.000016 0.000016 0.000016 0.000016 0.000016 0.000016 0.000016 0.000016 0.000016 0.000015 0.000015 0.000015 0.000015 0.000014 0.000014 0.000014 0.000014 0.000013 0.000013 0.000014 0.000015 0.000018 0.000026 0.000042 0.000072 0.000128 0.000228 0.000398 0.000677 0.001116 0.001782 0.002751 0.004111 0.005947 0.008331 0.011316 0.014915 0.019104 0.023818 0.028965 0.034445
0.021642 0.020211 0.018044 0.015447 0.012704 0.010050 0.007654 0.005615 0.003967 0.002701 0.001772 0.001120 0.000682 0.000401 0.000228 0.000125 0.000068 0.000037 0.000020 0.000012 0.000009 0.000007 0.000007 0.000006 0.000006 0.000007 0.000007 0.000007 0.000007 0.000007 0.000007 0.000007 0.000007 0.000007 0.000007 0.000008 0.000008 0.000008 0.000008 0.000008 0.000008 0.000008 0.000008 0.000008 0.000008 0.000008 0.000008 0.000008 0.000008 0.000007 0.000007 0.000007 0.000007 0.000007 0.000007 0.000007 0.000007 0.000007 0.000007 0.000007 0.000007 0.000007 0.000007 0.000007 0.000007 0.000007 0.000007 0.000007 0.000007 0.000007 0.000007 0.000007 0.000007 0.000007 0.000007 0.000007 0.000007 0.000008 0.000008 0.000008 0.000008 0.000008 0.000008 0.000008 0.000008 0.000008 0.000008 0.000008 0.000008 0.000008 0.000008 0.000008 0.000007 0.000007 0.000007 0.000007 0.000007 0.000007 0.000007 0.000007 0.000007 0.000007 0.000006 0.000006 0.000006 0.000006 0.000007 0.000009 0.000013 0.000021 0.000038 0.000071 0.000132 0.000240 0.000423 0.000724 0.001197 0.001914 0.002960 0.004428 0.006410 0.008988 0.012217 0.016117 0.020662 0.025782 0.031371 0.037305
0.023397 0.021861 0.019497 0.016664 0.013682 0.010807 0.008220 0.006022 0.004251 0.002892 0.001895 0.001196 0.000728 0.000426 0.000241 0.000132 0.000070 0.000036 0.000019 0.000010 0.000006 0.000004 0.000003 0.000003 0.000003 0.000003 0.000003 0.000003 0.000003 0.000003 0.000003 0.000003 0.000003 0.000003 0.000003 0.000003 0.000003 0.000003 0.000003 0.000003 0.000003 0.000003 0.000003 0.000003 0.000003 0.000003 0.000003 0.000003 0.000003 0.000003 0.000003 0.000003 0.000003 0.000003 0.000003 0.000003 0.000003 0.000003 0.000003 0.000003 0.000003 0.000003 0.000003 0.000003 0.000003 0.000003 0.000003 0.000003 0.000003 0.000003 0.000003 0.000003 0.000003 0.000003 0.000003 0.000003 0.000003 0.000003 0.000003 0.000003 0.000003 0.000003 0.000003 0.000003 0.000003 0.000003 0.000003 0.000003 0.000003 0.000003 0.000003 0.000003 0.000003 0.000003 0.000003 0.000003 0.000003 0.000003 0.000003 0.000003 0.000003 0.000003 0.000003 0.000003 0.000003 0.000003 0.000004 0.000006 0.000010 0.000020 0.000038 0.000074 0.000139 0.000255 0.000452 0.000775 0.001284 0.002054 0.003179 0.004758 0.006892 0.009669 0.013152 0.017363 0.022274 0.027813 0.033867 0.040307
0.025300 0.023599 0.021012 0.017930 0.014698 0.011593 0.008806 0.006446 0.004546 0.003090 0.002024 0.001277 0.000776 0.000454 0.000256 0.000139 0.000073 0.000037 0.000018 0.000009 0.000005 0.000003 0.000002 0.000001 0.000001 0.000001 0.000001 0.000001 0.000001 0.000001 0.000001 0.000001 0.000001 0.000001 0.000001 0.000001 0.000001 0.000001 0.000001 0.000001 0.000001 0.000001 0.000001 0.000001 0.000001 0.000001 0.000001 0.000001 0.000001 0.000001 0.000001 0.000001 0.000001 0.000001 0.000001 0.000001 0.000001 0.000001 0.000001 0.000001 0.000001 0.000001 0.000001 0.000001 0.000001 0.000001 0.000001 0.000001 0.000001 0.000001 0.000001 0.000001 0.000001 0.000001 0.000001 0.000001 0.000001 0.000001 0.000001 0.000001 0.000001 0.000001 0.000001 0.000001 0.000001 0.000001 0.000001 0.000001 0.000001 0.000001 0.000001 0.000001 0.000001 0.000001 0.000001 0.000001 0.000001 0.000001 0.000001 0.000001 0.000001 0.000001 0.000001 0.000001 0.000001 0.000002 0.000003 0.000005 0.000010 0.000020 0.000040 0.000078 0.000148 0.000272 0.000483 0.000829 0.001374 0.002201 0.003407 0.005102 0.007393 0.010378 0.014124 0.018656 0.023948 0.029922 0.036460 0.043425
0.027323 0.025435 0.022602 0.019251 0.015757 0.012411 0.009417 0.006886 0.004853 0.003297 0.002158 0.001361 0.000827 0.000483 0.000272 0.000148 0.000077 0.000039 0.000019 0.000009 0.000004 0.000002 0.000001 0.000001 0.000001 0.000001 0.000001 0.000001 0.000001 0.000001 0.000001 0.000001 0.000001 0.000001 0.000001 0.000001 0.000001 0.000001 0.000001 0.000001 0.000001 0.000001 0.000001 0.000001 0.000001 0.000001 0.000001 0.000001 0.000001 0.000001 0.000001 0.000001 0.000001 0.000001 0.000001 0.000001 0.000001 0.000001 0.000001 0.000001 0.000001 0.000001 0.000001 0.000001 0.000001 0.000001 0.000001 0.000001 0.000001 0.000001 0.000001 0.000001 0.000001 0.000001 0.000001 0.000001 0.000001 0.000001 0.000001 0.000001 0.000001 0.000001 0.000001 0.000001 0.000001 0.000001 0.000001 0.000001 0.000001 0.000001 0.000001 0.000001 0.000001 0.000001 0.000001 0.000001 0.000001 0.000001 0.000001 0.000001 0.000001 0.000001 0.000001 0.000001 0.000001 0.000001 0.000002 0.000005 0.000010 0.000020 0.000042 0.000082 0.000157 0.000290 0.000516 0.000886 0.001470 0.002354 0.003646 0.005460 0.007916 0.011116 0.015135 0.020002 0.025690 0.032120 0.039165 0.046677
0.029547 0.027383 0.024268 0.020631 0.016860 0.013263 0.010052 0.007343 0.005172 0.003511 0.002297 0.001448 0.000879 0.000514 0.000289 0.000157 0.000082 0.000041 0.000020 0.000009 0.000004 0.000002 0.000001 0.000000 0.000000 0.000000 0.000000 0.000000 0.000000 0.000000 0.000000 0.000000 0.000000 0.000000 0.000000 0.000000 0.000000 0.000000 0.000000 0.000000 0.000000 0.000000 0.000000 0.000000 0.000000 0.000000 0.000000 0.000000 0.000000 0.000000 0.000000 0.000000 0.000000 0.000000 0.000000 0.000000 0.000000 0.000000 0.000000 0.000000 0.000000 0.000000 0.000000 0.000000 0.000000 0.000000 0.000000 0.000000 0.000000 0.000000 0.000000 0.000000 0.000000 0.000000 0.000000 0.000000 0.000000 0.000000 0.000000 0.000000 0.000000 0.000000 0.000000 0.000000 0.000000 0.000000 0.000000 0.000000 0.000000 0.000000 0.000000 0.000000 0.000000 0.000000 0.000000 0.000000 0.000000 0.000000 0.000000 0.000000 0.000000 0.000000 0.000000 0.000000 0.000001 0.000001 0.000002 0.000005 0.000010 0.000022 0.000044 0.000088 0.000168 0.000310 0.000551 0.000946 0.001569 0.002514 0.003894 0.005834 0.008461 0.011886 0.016189 0.021405 0.027508 0.034414 0.041995 0.050095
0.031851 0.029406 0.026001 0.022068 0.018009 0.014151 0.010714 0.007821 0.005504 0.003735 0.002443 0.001539 0.000934 0.000546 0.000307 0.000166 0.000087 0.000043 0.000021 0.000010 0.000004 0.000002 0.000001 0.000000 0.000000 0.000000 0.000000 0.000000 0.000000 0.000000 0.000000 0.000000 0.000000 0.000000 0.000000 0.000000 0.000000 0.000000 0.000000 0.000000 0.000000 0.000000 0.000000 0.000000 0.000000 0.000000 0.000000 0.000000 0.000000 0.000000 0.000000 0.000000 0.000000 0.000000 0.000000 0.000000 0.000000 0.000000 0.000000 0.000000 0.000000 0.000000 0.000000 0.000000 0.000000 0.000000 0.000000 0.000000 0.000000 0.000000 0.000000 0.000000 0.000000 0.000000 0.000000 0.000000 0.000000 0.000000 0.000000 0.000000 0.000000 0.000000 0.000000 0.000000 0.000000 0.000000 0.000000 0.000000 0.000000 0.000000 0.000000 0.000000 0.000000 0.000000 0.000000 0.000000 0.000000 0.000000 0.000000 0.000000 0.000000 0.000000 0.000000 0.000000 0.000000 0.000001 0.000002 0.000005 0.000011 0.000023 0.000047 0.000094 0.000179 0.000330 0.000587 0.001009 0.001674 0.002682 0.004154 0.006225 0.009030 0.012689 0.017290 0.022870 0.029406 0.036812 0.044955 0.053680