# vtk DataFile Version 2.0
test
ASCII
DATASET STRUCTURED_POINTS
DIMENSIONS 128 128 1
ORIGIN 0 0 0
SPACING 1 1 1
POINT_DATA 16384
SCALARS values float
LOOKUP_TABLE default
0.000561 -0.002553 -0.001473 -0.001416 0.000104 0.001360 0.003649 0.005227 0.007292 0.008451 0.009976 0.011729 0.013419 0.015098 0.016455 0.018239 0.019632 0.020766 0.022387 0.023495 0.024676 0.025865 0.026703 0.027876 0.028747 0.029406 0.030277 0.030907 0.031367 0.032032 0.032458 0.032745 0.033235 0.033499 0.033752 0.034134 0.034411 0.034623 0.034972 0.035235 0.035449 0.035706 0.035945 0.036128 0.036275 0.036383 0.036403 0.036246 0.035881 0.035507 0.034985 0.034157 0.033781 0.034944 0.036660 0.036204 0.034432 0.034907 0.035656 0.034811 0.035276 0.035304 0.035096 0.035540 0.035316 0.035821 0.035762 0.036151 0.036359 0.036712 0.036854 0.037294 0.037586 0.038086 0.038384 0.038872 0.039222 0.039665 0.039992 0.040339 0.040702 0.040976 0.041253 0.041443 0.041662 0.041876 0.042000 0.042127 0.042196 0.042252 0.042283 0.042148 0.042036 0.041810 0.041497 0.041139 0.040566 0.040002 0.039327 0.038515 0.037718 0.036722 0.035703 0.034688 0.033505 0.032324 0.031122 0.029828 0.028556 0.027174 0.025695 0.024244 0.022747 0.021175 0.019601 0.017933 0.016188 0.014474 0.012712 0.010844 0.008869 0.006753 0.004647 0.002826 0.001415 0.000432 -0.000020 0.000075
-0.000371 -0.000888 -0.000367 0.000132 0.001113 0.002229 0.003686 0.005048 0.006486 0.007701 0.008987 0.010346 0.011699 0.013027 0.014264 0.015559 0.016727 0.017799 0.018938 0.019928 0.020884 0.021795 0.022593 0.023418 0.024132 0.024751 0.025370 0.025894 0.026341 0.026794 0.027159 0.027461 0.027780 0.028029 0.028258 0.028504 0.028717 0.028906 0.029118 0.029304 0.029472 0.029642 0.029797 0.029923 0.030013 0.030056 0.030028 0.029896 0.029656 0.029361 0.029008 0.028636 0.028535 0.028961 0.029507 0.029391 0.028869 0.028880 0.029017 0.028817 0.028885 0.028879 0.028832 0.028935 0.028924 0.029081 0.029143 0.029315 0.029470 0.029664 0.029828 0.030074 0.030312 0.030605 0.030866 0.031168 0.031443 0.031732 0.031986 0.032235 0.032476 0.032683 0.032871 0.033025 0.033172 0.033304 0.033399 0.033475 0.033519 0.033538 0.033521 0.033435 0.033314 0.033130 0.032880 0.032568 0.032159 0.031700 0.031169 0.030560 0.029905 0.029163 0.028376 0.027551 0.026656 0.025730 0.024772 0.023769 0.022742 0.021661 0.020531 0.019384 0.018205 0.016987 0.015742 0.014449 0.013115 0.011767 0.010385 0.008950 0.007464 0.005946 0.004479 0.003182 0.002121 0.001292 0.000637 -0.000013
-0.001095 -0.000092 0.000528 0.001053 0.001706 0.002510 0.003460 0.004467 0.005494 0.006494 0.007505 0.008538 0.009574 0.010590 0.011576 0.012541 0.013455 0.014322 0.015162 0.015949 0.016689 0.017384 0.018028 0.018637 0.019191 0.019691 0.020152 0.020563 0.020929 0.021263 0.021554 0.021808 0.022040 0.022242 0.022426 0.022598 0.022755 0.022898 0.023037 0.023164 0.023282 0.023392 0.023491 0.023570 0.023622 0.023636 0.023599 0.023499 0.023337 0.023134 0.022911 0.022726 0.022677 0.022802 0.022946 0.022914 0.022766 0.022697 0.022675 0.022620 0.022596 0.022573 0.022553 0.022561 0.022576 0.022622 0.022677 0.022760 0.022858 0.022970 0.023095 0.023244 0.023409 0.023592 0.023780 0.023976 0.024170 0.024361 0.024543 0.024715 0.024877 0.025022 0.025151 0.025263 0.025361 0.025445 0.025509 0.025554 0.025578 0.025579 0.025550 0.025483 0.025380 0.025234 0.025041 0.024797 0.024499 0.024151 0.023752 0.023301 0.022804 0.022258 0.021671 0.021045 0.020380 0.019683 0.018957 0.018202 0.017418 0.016602 0.015757 0.014888 0.013996 0.013079 0.012136 0.011166 0.010173 0.009162 0.008134 0.007090 0.006041 0.005015 0.004059 0.003222 0.002521 0.001917 0.001292 0.000437
0.000432 0.000975 0.001368 0.001692 0.002050 0.002507 0.003073 0.003720 0.004415 0.005133 0.005869 0.006619 0.007371 0.008115 0.008840 0.009544 0.010218 0.010861 0.011476 0.012056 0.012603 0.013116 0.013595 0.014040 0.014450 0.014824 0.015164 0.015472 0.015748 0.015995 0.016215 0.016409 0.016582 0.016735 0.016872 0.016995 0.017107 0.017208 0.017300 0.017385 0.017462 0.017531 0.017592 0.017638 0.017666 0.017668 0.017637 0.017568 0.017463 0.017333 0.017198 0.017089 0.017043 0.017058 0.017082 0.017059 0.016998 0.016944 0.016905 0.016868 0.016837 0.016811 0.016790 0.016779 0.016780 0.016795 0.016823 0.016866 0.016922 0.016990 0.017070 0.017164 0.017270 0.017386 0.017509 0.017636 0.017764 0.017890 0.018012 0.018127 0.018234 0.018332 0.018419 0.018494 0.018559 0.018613 0.018653 0.018680 0.018691 0.018684 0.018655 0.018602 0.018523 0.018413 0.018270 0.018093 0.017879 0.017628 0.017342 0.017020 0.016664 0.016274 0.015854 0.015404 0.014927 0.014425 0.013900 0.013353 0.012783 0.012192 0.011580 0.010950 0.010302 0.009636 0.008952 0.008252 0.007540 0.006821 0.006102 0.005396 0.004720 0.004102 0.003571 0.003146 0.002814 0.002512 0.002119 0.001460
0.001384 0.001951 0.002179 0.002245 0.002298 0.002423 0.002652 0.002980 0.003383 0.003839 0.004327 0.004836 0.005352 0.005866 0.006370 0.006860 0.007331 0.007781 0.008211 0.008618 0.009002 0.009363 0.009700 0.010013 0.010303 0.010568 0.010810 0.011029 0.011227 0.011404 0.011563 0.011703 0.011828 0.011938 0.012035 0.012122 0.012199 0.012267 0.012327 0.012381 0.012429 0.012471 0.012506 0.012532 0.012546 0.012544 0.012522 0.012478 0.012413 0.012335 0.012253 0.012186 0.012143 0.012125 0.012112 0.012087 0.012052 0.012015 0.011983 0.011955 0.011930 0.011908 0.011889 0.011875 0.011869 0.011872 0.011884 0.011905 0.011937 0.011977 0.012025 0.012083 0.012148 0.012220 0.012297 0.012377 0.012458 0.012539 0.012617 0.012691 0.012760 0.012824 0.012880 0.012929 0.012971 0.013005 0.013029 0.013044 0.013048 0.013039 0.013015 0.012976 0.012918 0.012839 0.012739 0.012616 0.012469 0.012297 0.012101 0.011881 0.011638 0.011371 0.011083 0.010775 0.010448 0.010102 0.009739 0.009361 0.008966 0.008556 0.008131 0.007693 0.007242 0.006778 0.006304 0.005822 0.005336 0.004855 0.004392 0.003965 0.003598 0.003318 0.003149 0.003097 0.003133 0.003185 0.003130 0.002814
0.002673 0.003043 0.003028 0.002814 0.002560 0.002373 0.002303 0.002355 0.002511 0.002743 0.003027 0.003342 0.003673 0.004007 0.004338 0.004662 0.004974 0.005273 0.005559 0.005830 0.006086 0.006328 0.006554 0.006764 0.006959 0.007138 0.007302 0.007451 0.007586 0.007708 0.007816 0.007913 0.007999 0.008074 0.008140 0.008198 0.008249 0.008293 0.008332 0.008365 0.008394 0.008418 0.008437 0.008450 0.008456 0.008453 0.008439 0.008413 0.008375 0.008330 0.008282 0.008240 0.008207 0.008182 0.008162 0.008140 0.008115 0.008091 0.008069 0.008050 0.008032 0.008015 0.008000 0.007988 0.007981 0.007979 0.007983 0.007994 0.008011 0.008034 0.008062 0.008097 0.008136 0.008179 0.008226 0.008274 0.008324 0.008373 0.008421 0.008467 0.008511 0.008550 0.008586 0.008617 0.008642 0.008663 0.008677 0.008685 0.008685 0.008677 0.008660 0.008632 0.008592 0.008539 0.008472 0.008391 0.008294 0.008182 0.008054 0.007910 0.007751 0.007577 0.007390 0.007188 0.006973 0.006746 0.006508 0.006257 0.005996 0.005725 0.005443 0.005152 0.004852 0.004545 0.004232 0.003917 0.003606 0.003311 0.003050 0.002845 0.002726 0.002726 0.002867 0.003154 0.003552 0.003981 0.004306 0.004352
0.003854 0.004203 0.003959 0.003449 0.002893 0.002416 0.002080 0.001897 0.001848 0.001903 0.002027 0.002196 0.002388 0.002591 0.002796 0.002998 0.003194 0.003383 0.003563 0.003735 0.003898 0.004051 0.004195 0.004330 0.004454 0.004569 0.004675 0.004771 0.004859 0.004938 0.005009 0.005072 0.005128 0.005177 0.005220 0.005257 0.005289 0.005317 0.005340 0.005360 0.005376 0.005389 0.005399 0.005405 0.005407 0.005404 0.005396 0.005381 0.005360 0.005335 0.005308 0.005282 0.005259 0.005238 0.005221 0.005204 0.005187 0.005172 0.005158 0.005145 0.005133 0.005122 0.005112 0.005103 0.005096 0.005093 0.005094 0.005099 0.005108 0.005121 0.005138 0.005158 0.005181 0.005206 0.005234 0.005262 0.005291 0.005320 0.005349 0.005377 0.005403 0.005427 0.005448 0.005466 0.005482 0.005494 0.005502 0.005506 0.005504 0.005498 0.005486 0.005467 0.005441 0.005407 0.005365 0.005313 0.005253 0.005183 0.005103 0.005014 0.004915 0.004807 0.004690 0.004565 0.004431 0.004289 0.004139 0.003982 0.003817 0.003646 0.003468 0.003284 0.003095 0.002901 0.002705 0.002513 0.002332 0.002176 0.002067 0.002034 0.002114 0.002343 0.002752 0.003348 0.004096 0.004914 0.005661 0.006153
0.005903 0.005635 0.004998 0.004164 0.003309 0.002563 0.001992 0.001610 0.001396 0.001312 0.001319 0.001382 0.001477 0.001589 0.001707 0.001826 0.001943 0.002056 0.002164 0.002268 0.002366 0.002459 0.002546 0.002627 0.002703 0.002773 0.002837 0.002897 0.002950 0.002999 0.003043 0.003082 0.003117 0.003147 0.003173 0.003196 0.003215 0.003231 0.003244 0.003255 0.003264 0.003271 0.003275 0.003278 0.003278 0.003276 0.003271 0.003263 0.003252 0.003238 0.003224 0.003208 0.003193 0.003180 0.003167 0.003156 0.003145 0.003136 0.003128 0.003120 0.003113 0.003106 0.003099 0.003093 0.003088 0.003086 0.003086 0.003088 0.003093 0.003100 0.003109 0.003120 0.003133 0.003148 0.003163 0.003180 0.003196 0.003213 0.003229 0.003245 0.003260 0.003274 0.003287 0.003297 0.003306 0.003312 0.003317 0.003318 0.003317 0.003312 0.003304 0.003292 0.003276 0.003255 0.003230 0.003199 0.003163 0.003121 0.003074 0.003021 0.002963 0.002899 0.002830 0.002755 0.002675 0.002591 0.002502 0.002408 0.002309 0.002207 0.002100 0.001989 0.001876 0.001761 0.001647 0.001540 0.001451 0.001395 0.001398 0.001496 0.001732 0.002153 0.002797 0.003676 0.004762 0.005973 0.007170 0.008171
0.007526 0.007040 0.006093 0.004944 0.003800 0.002803 0.002023 0.001472 0.001124 0.000934 0.000855 0.000845 0.000875 0.000927 0.000989 0.001055 0.001120 0.001184 0.001246 0.001305 0.001361 0.001414 0.001464 0.001511 0.001555 0.001595 0.001632 0.001667 0.001698 0.001726 0.001752 0.001775 0.001795 0.001812 0.001827 0.001840 0.001851 0.001860 0.001868 0.001873 0.001878 0.001881 0.001883 0.001884 0.001883 0.001882 0.001879 0.001874 0.001869 0.001862 0.001854 0.001845 0.001837 0.001828 0.001820 0.001814 0.001808 0.001802 0.001798 0.001794 0.001790 0.001785 0.001781 0.001777 0.001774 0.001773 0.001772 0.001773 0.001775 0.001779 0.001784 0.001791 0.001798 0.001806 0.001815 0.001824 0.001833 0.001842 0.001851 0.001860 0.001868 0.001876 0.001883 0.001889 0.001893 0.001897 0.001899 0.001899 0.001898 0.001895 0.001890 0.001883 0.001873 0.001861 0.001846 0.001829 0.001808 0.001785 0.001758 0.001728 0.001695 0.001659 0.001620 0.001578 0.001533 0.001485 0.001435 0.001382 0.001326 0.001267 0.001206 0.001144 0.001080 0.001016 0.000956 0.000906 0.000879 0.000892 0.000977 0.001175 0.001537 0.002121 0.002973 0.004116 0.005528 0.007129 0.008781 0.010298
0.009333 0.008512 0.007230 0.005767 0.004346 0.003114 0.002145 0.001447 0.000989 0.000717 0.000575 0.000515 0.000504 0.000518 0.000545 0.000578 0.000612 0.000647 0.000680 0.000712 0.000742 0.000771 0.000798 0.000824 0.000848 0.000870 0.000890 0.000909 0.000926 0.000941 0.000955 0.000968 0.000979 0.000988 0.000997 0.001004 0.001009 0.001014 0.001018 0.001021 0.001023 0.001024 0.001025 0.001025 0.001024 0.001023 0.001022 0.001019 0.001017 0.001013 0.001009 0.001004 0.001000 0.000995 0.000991 0.000987 0.000984 0.000981 0.000979 0.000977 0.000974 0.000972 0.000970 0.000968 0.000966 0.000964 0.000964 0.000964 0.000966 0.000968 0.000970 0.000974 0.000978 0.000982 0.000987 0.000991 0.000996 0.001001 0.001006 0.001011 0.001015 0.001019 0.001023 0.001026 0.001028 0.001030 0.001031 0.001031 0.001030 0.001028 0.001025 0.001021 0.001016 0.001009 0.001001 0.000991 0.000980 0.000968 0.000953 0.000937 0.000920 0.000900 0.000879 0.000857 0.000833 0.000807 0.000780 0.000751 0.000721 0.000690 0.000657 0.000623 0.000590 0.000558 0.000532 0.000518 0.000531 0.000592 0.000737 0.001013 0.001481 0.002207 0.003249 0.004641 0.006365 0.008348 0.010456 0.012523
0.011242 0.010017 0.008386 0.006616 0.004928 0.003475 0.002330 0.001502 0.000950 0.000611 0.000422 0.000328 0.000289 0.000281 0.000287 0.000301 0.000317 0.000335 0.000351 0.000368 0.000383 0.000398 0.000412 0.000425 0.000437 0.000449 0.000459 0.000469 0.000478 0.000486 0.000493 0.000500 0.000505 0.000510 0.000514 0.000518 0.000521 0.000523 0.000525 0.000526 0.000527 0.000528 0.000528 0.000528 0.000527 0.000527 0.000526 0.000525 0.000523 0.000521 0.000519 0.000517 0.000515 0.000512 0.000510 0.000508 0.000507 0.000505 0.000504 0.000503 0.000502 0.000501 0.000500 0.000498 0.000497 0.000497 0.000496 0.000496 0.000497 0.000498 0.000499 0.000501 0.000503 0.000505 0.000508 0.000510 0.000513 0.000515 0.000518 0.000520 0.000523 0.000525 0.000527 0.000528 0.000529 0.000530 0.000530 0.000530 0.000529 0.000528 0.000527 0.000524 0.000521 0.000518 0.000514 0.000509 0.000503 0.000497 0.000489 0.000481 0.000472 0.000462 0.000452 0.000440 0.000428 0.000415 0.000401 0.000387 0.000371 0.000355 0.000339 0.000322 0.000306 0.000293 0.000286 0.000295 0.000335 0.000430 0.000620 0.000959 0.001518 0.002374 0.003595 0.005224 0.007250 0.009599 0.012133 0.014679
0.013056 0.011483 0.009533 0.007473 0.005531 0.003866 0.002558 0.001609 0.000972 0.000577 0.000350 0.000230 0.000174 0.000152 0.000147 0.000150 0.000156 0.000164 0.000172 0.000180 0.000187 0.000195 0.000201 0.000208 0.000214 0.000219 0.000224 0.000229 0.000233 0.000237 0.000241 0.000244 0.000247 0.000249 0.000251 0.000253 0.000254 0.000255 0.000256 0.000256 0.000257 0.000257 0.000257 0.000257 0.000256 0.000256 0.000256 0.000255 0.000254 0.000253 0.000252 0.000251 0.000250 0.000249 0.000248 0.000247 0.000247 0.000246 0.000246 0.000245 0.000245 0.000244 0.000243 0.000243 0.000242 0.000242 0.000241 0.000241 0.000242 0.000242 0.000243 0.000244 0.000245 0.000246 0.000247 0.000248 0.000250 0.000251 0.000252 0.000253 0.000255 0.000256 0.000256 0.000257 0.000258 0.000258 0.000258 0.000258 0.000257 0.000257 0.000256 0.000255 0.000253 0.000252 0.000249 0.000247 0.000244 0.000241 0.000238 0.000234 0.000229 0.000225 0.000219 0.000214 0.000208 0.000202 0.000195 0.000188 0.000181 0.000173 0.000165 0.000158 0.000151 0.000148 0.000154 0.000177 0.000234 0.000353 0.000580 0.000975 0.001617 0.002595 0.003988 0.005848 0.008167 0.010869 0.013797 0.016739
0.014630 0.012864 0.010656 0.008330 0.006146 0.004279 0.002812 0.001748 0.001032 0.000585 0.000326 0.000187 0.000117 0.000086 0.000074 0.000072 0.000073 0.000076 0.000080 0.000083 0.000087 0.000090 0.000093 0.000096 0.000099 0.000101 0.000103 0.000106 0.000108 0.000109 0.000111 0.000112 0.000114 0.000115 0.000116 0.000116 0.000117 0.000117 0.000118 0.000118 0.000118 0.000118 0.000118 0.000118 0.000118 0.000118 0.000117 0.000117 0.000117 0.000116 0.000116 0.000115 0.000115 0.000114 0.000114 0.000114 0.000113 0.000113 0.000113 0.000113 0.000112 0.000112 0.000112 0.000112 0.000111 0.000111 0.000111 0.000111 0.000111 0.000111 0.000111 0.000112 0.000112 0.000113 0.000114 0.000114 0.000115 0.000115 0.000116 0.000117 0.000117 0.000118 0.000118 0.000118 0.000118 0.000119 0.000119 0.000118 0.000118 0.000118 0.000117 0.000117 0.000116 0.000115 0.000114 0.000113 0.000112 0.000111 0.000109 0.000107 0.000105 0.000103 0.000101 0.000098 0.000095 0.000093 0.000090 0.000086 0.000083 0.000080 0.000076 0.000073 0.000072 0.000075 0.000087 0.000119 0.000188 0.000328 0.000586 0.001032 0.001754 0.002851 0.004413 0.006501 0.009112 0.012163 0.015487 0.018857
0.016156 0.014214 0.011768 0.009190 0.006772 0.004707 0.003085 0.001907 0.001114 0.000618 0.000329 0.000172 0.000093 0.000056 0.000040 0.000034 0.000033 0.000034 0.000035 0.000036 0.000038 0.000039 0.000040 0.000042 0.000043 0.000044 0.000045 0.000046 0.000047 0.000048 0.000048 0.000049 0.000049 0.000050 0.000050 0.000051 0.000051 0.000051 0.000051 0.000051 0.000051 0.000051 0.000051 0.000051 0.000051 0.000051 0.000051 0.000051 0.000050 0.000050 0.000050 0.000050 0.000050 0.000049 0.000049 0.000049 0.000049 0.000049 0.000049 0.000049 0.000049 0.000049 0.000048 0.000048 0.000048 0.000048 0.000048 0.000048 0.000048 0.000048 0.000048 0.000048 0.000049 0.000049 0.000049 0.000049 0.000050 0.000050 0.000050 0.000051 0.000051 0.000051 0.000051 0.000051 0.000051 0.000051 0.000051 0.000051 0.000051 0.000051 0.000051 0.000051 0.000050 0.000050 0.000049 0.000049 0.000048 0.000048 0.000047 0.000046 0.000045 0.000045 0.000044 0.000042 0.000041 0.000040 0.000039 0.000037 0.000036 0.000035 0.000033 0.000033 0.000034 0.000040 0.000056 0.000094 0.000174 0.000331 0.000618 0.001114 0.001914 0.003130 0.004862 0.007180 0.010084 0.013489 0.017213 0.021009
0.017727 0.015581 0.012894 0.010064 0.007412 0.005148 0.003370 0.002079 0.001209 0.000664 0.000347 0.000174 0.000085 0.000043 0.000025 0.000017 0.000015 0.000014 0.000014 0.000015 0.000016 0.000016 0.000017 0.000017 0.000018 0.000018 0.000018 0.000019 0.000019 0.000019 0.000020 0.000020 0.000020 0.000020 0.000021 0.000021 0.000021 0.000021 0.000021 0.000021 0.000021 0.000021 0.000021 0.000021 0.000021 0.000021 0.000021 0.000021 0.000021 0.000020 0.000020 0.000020 0.000020 0.000020 0.000020 0.000020 0.000020 0.000020 0.000020 0.000020 0.000020 0.000020 0.000020 0.000020 0.000020 0.000020 0.000020 0.000020 0.000020 0.000020 0.000020 0.000020 0.000020 0.000020 0.000020 0.000020 0.000020 0.000020 0.000021 0.000021 0.000021 0.000021 0.000021 0.000021 0.000021 0.000021 0.000021 0.000021 0.000021 0.000021 0.000021 0.000021 0.000020 0.000020 0.000020 0.000020 0.000020 0.000019 0.000019 0.000019 0.000018 0.000018 0.000018 0.000017 0.000017 0.000016 0.000016 0.000015 0.000015 0.000014 0.000014 0.000015 0.000017 0.000025 0.000044 0.000086 0.000175 0.000348 0.000665 0.001209 0.002089 0.003425 0.005331 0.007885 0.011091 0.014860 0.018997 0.023235
0.019290 0.016986 0.014057 0.010967 0.008073 0.005605 0.003667 0.002260 0.001312 0.000718 0.000372 0.000182 0.000086 0.000040 0.000019 0.000010 0.000007 0.000006 0.000006 0.000006 0.000006 0.000006 0.000006 0.000007 0.000007 0.000007 0.000007 0.000007 0.000007 0.000007 0.000008 0.000008 0.000008 0.000008 0.000008 0.000008 0.000008 0.000008 0.000008 0.000008 0.000008 0.000008 0.000008 0.000008 0.000008 0.000008 0.000008 0.000008 0.000008 0.000008 0.000008 0.000008 0.000008 0.000008 0.000008 0.000008 0.000008 0.000008 0.000008 0.000008 0.000008 0.000008 0.000008 0.000008 0.000008 0.000007 0.000007 0.000007 0.000007 0.000007 0.000008 0.000008 0.000008 0.000008 0.000008 0.000008 0.000008 0.000008 0.000008 0.000008 0.000008 0.000008 0.000008 0.000008 0.000008 0.000008 0.000008 0.000008 0.000008 0.000008 0.000008 0.000008 0.000008 0.000008 0.000008 0.000008 0.000008 0.000007 0.000007 0.000007 0.000007 0.000007 0.000007 0.000007 0.000006 0.000006 0.000006 0.000006 0.000006 0.000006 0.000006 0.000007 0.000010 0.000019 0.000040 0.000087 0.000184 0.000374 0.000719 0.001313 0.002274 0.003734 0.005820 0.008618 0.012139 0.016289 0.020860 0.025555
0.021038 0.018500 0.015286 0.011909 0.008758 0.006077 0.003975 0.002449 0.001421 0.000777 0.000400 0.000195 0.000090 0.000040 0.000017 0.000008 0.000004 0.000003 0.000002 0.000002 0.000002 0.000002 0.000002 0.000002 0.000002 0.000003 0.000003 0.000003 0.000003 0.000003 0.000003 0.000003 0.000003 0.000003 0.000003 0.000003 0.000003 0.000003 0.000003 0.000003 0.000003 0.000003 0.000003 0.000003 0.000003 0.000003 0.000003 0.000003 0.000003 0.000003 0.000003 0.000003 0.000003 0.000003 0.000003 0.000003 0.000003 0.000003 0.000003 0.000003 0.000003 0.000003 0.000003 0.000003 0.000003 0.000003 0.000003 0.000003 0.000003 0.000003 0.000003 0.000003 0.000003 0.000003 0.000003 0.000003 0.000003 0.000003 0.000003 0.000003 0.000003 0.000003 0.000003 0.000003 0.000003 0.000003 0.000003 0.000003 0.000003 0.000003 0.000003 0.000003 0.000003 0.000003 0.000003 0.000003 0.000003 0.000003 0.000003 0.000003 0.000003 0.000002 0.000002 0.000002 0.000002 0.000002 0.000002 0.000002 0.000002 0.000002 0.000003 0.000004 0.000008 0.000018 0.000041 0.000092 0.000197 0.000403 0.000778 0.001424 0.002468 0.004056 0.006327 0.009380 0.013233 0.017791 0.022839 0.028065
0.023145 0.020168 0.016588 0.012893 0.009469 0.006565 0.004292 0.002644 0.001534 0.000838 0.000432 0.000210 0.000096 0.000042 0.000017 0.000007 0.000003 0.000001 0.000001 0.000001 0.000001 0.000001 0.000001 0.000001 0.000001 0.000001 0.000001 0.000001 0.000001 0.000001 0.000001 0.000001 0.000001 0.000001 0.000001 0.000001 0.000001 0.000001 0.000001 0.000001 0.000001 0.000001 0.000001 0.000001 0.000001 0.000001 0.000001 0.000001 0.000001 0.000001 0.000001 0.000001 0.000001 0.000001 0.000001 0.000001 0.000001 0.000001 0.000001 0.000001 0.000001 0.000001 0.000001 0.000001 0.000001 0.000001 0.000001 0.000001 0.000001 0.000001 0.000001 0.000001 0.000001 0.000001 0.000001 0.000001 0.000001 0.000001 0.000001 0.000001 0.000001 0.000001 0.000001 0.000001 0.000001 0.000001 0.000001 0.000001 0.000001 0.000001 0.000001 0.000001 0.000001 0.000001 0.000001 0.000001 0.000001 0.000001 0.000001 0.000001 0.000001 0.000001 0.000001 0.000001 0.000001 0.000001 0.000001 0.000001 0.000001 0.000001 0.000001 0.000003 0.000007 0.000018 0.000043 0.000098 0.000212 0.000434 0.000840 0.001538 0.002669 0.004390 0.006855 0.010174 0.014374 0.019364 0.024936 0.030794
0.025254 0.021891 0.017943 0.013915 0.010205 0.007069 0.004620 0.002845 0.001650 0.000901 0.000464 0.000225 0.000103 0.000045 0.000018 0.000007 0.000003 0.000001 0.000000 0.000000 0.000000 0.000000 0.000000 0.000000 0.000000 0.000000 0.000000 0.000000 0.000000 0.000000 0.000000 0.000000 0.000000 0.000000 0.000000 0.000000 0.000000 0.000000 0.000000 0.000000 0.000000 0.000000 0.000000 0.000000 0.000000 0.000000 0.000000 0.000000 0.000000 0.000000 0.000000 0.000000 0.000000 0.000000 0.000000 0.000000 0.000000 0.000000 0.000000 0.000000 0.000000 0.000000 0.000000 0.000000 0.000000 0.000000 0.000000 0.000000 0.000000 0.000000 0.000000 0.000000 0.000000 0.000000 0.000000 0.000000 0.000000 0.000000 0.000000 0.000000 0.000000 0.000000 0.000000 0.000000 0.000000 0.000000 0.000000 0.000000 0.000000 0.000000 0.000000 0.000000 0.000000 0.000000 0.000000 0.000000 0.000000 0.000000 0.000000 0.000000 0.000000 0.000000 0.000000 0.000000 0.000000 0.000000 0.000000 0.000000 0.000000 0.000000 0.000001 0.000003 0.000007 0.000019 0.000046 0.000105 0.000228 0.000467 0.000905 0.001658 0.002877 0.004736 0.007401 0.010996 0.015557 0.020995 0.027095 0.033555
0.027380 0.023644 0.019330 0.014964 0.010961 0.007588 0.004957 0.003052 0.001770 0.000967 0.000498 0.000242 0.000111 0.000048 0.000020 0.000008 0.000003 0.000001 0.000000 0.000000 0.000000 0.000000 0.000000 0.000000 0.000000 0.000000 0.000000 0.000000 0.000000 0.000000 0.000000 0.000000 0.000000 0.000000 0.000000 0.000000 0.000000 0.000000 0.000000 0.000000 0.000000 0.000000 0.000000 0.000000 0.000000 0.000000 0.000000 0.000000 0.000000 0.000000 0.000000 0.000000 0.000000 0.000000 0.000000 0.000000 0.000000 0.000000 0.000000 0.000000 0.000000 0.000000 0.000000 0.000000 0.000000 0.000000 0.000000 0.000000 0.000000 0.000000 0.000000 0.000000 0.000000 0.000000 0.000000 0.000000 0.000000 0.000000 0.000000 0.000000 0.000000 0.000000 0.000000 0.000000 0.000000 0.000000 0.000000 0.000000 0.000000 0.000000 0.000000 0.000000 0.000000 0.000000 0.000000 0.000000 0.000000 0.000000 0.000000 0.000000 0.000000 0.000000 0.000000 0.000000 0.000000 0.000000 0.000000 0.000000 0.000000 0.000000 0.000001 0.000003 0.000008 0.000020 0.000049 0.000113 0.000245 0.000502 0.000972 0.001781 0.003093 0.005094 0.007967 0.011847 0.016778 0.022672 0.029302 0.036350
0.029452 0.025399 0.020739 0.016037 0.011738 0.008121 0.005303 0.003265 0.001894 0.001035 0.000533 0.000259 0.000118 0.000051 0.000021 0.000008 0.000003 0.000001 0.000000 0.000000 0.000000 0.000000 0.000000 0.000000 0.000000 0.000000 0.000000 0.000000 0.000000 0.000000 0.000000 0.000000 0.000000 0.000000 0.000000 0.000000 0.000000 0.000000 0.000000 0.000000 0.000000 0.000000 0.000000 0.000000 0.000000 0.000000 0.000000 0.000000 0.000000 0.000000 0.000000 0.000000 0.000000 0.000000 0.000000 0.000000 0.000000 0.000000 0.000000 0.000000 0.000000 0.000000 0.000000 0.000000 0.000000 0.000000 0.000000 0.000000 0.000000 0.000000 0.000000 0.000000 0.000000 0.000000 0.000000 0.000000 0.000000 0.000000 0.000000 0.000000 0.000000 0.000000 0.000000 0.000000 0.000000 0.000000 0.000000 0.000000 0.000000 0.000000 0.000000 0.000000 0.000000 0.000000 0.000000 0.000000 0.000000 0.000000 0.000000 0.000000 0.000000 0.000000 0.000000 0.000000 0.000000 0.000000 0.000000 0.000000 0.000000 0.000000 0.000001 0.000003 0.000008 0.000022 0.000053 0.000121 0.000262 0.000538 0.001042 0.001910 0.003317 0.005465 0.008553 0.012727 0.018039 0.024395 0.031552 0.039149
0.031508 0.027171 0.022176 0.017138 0.012537 0.008670 0.005661 0.003485 0.002022 0.001105 0.000569 0.000276 0.000127 0.000055 0.000022 0.000009 0.000003 0.000001 0.000000 0.000000 0.000000 0.000000 0.000000 0.000000 0.000000 0.000000 0.000000 0.000000 0.000000 0.000000 0.000000 0.000000 0.000000 0.000000 0.000000 0.000000 0.000000 0.000000 0.000000 0.000000 0.000000 0.000000 0.000000 0.000000 0.000000 0.000000 0.000000 0.000000 0.000000 0.000000 0.000000 0.000000 0.000000 0.000000 0.000000 0.000000 0.000000 0.000000 0.000000 0.000000 0.000000 0.000000 0.000000 0.000000 0.000000 0.000000 0.000000 0.000000 0.000000 0.000000 0.000000 0.000000 0.000000 0.000000 0.000000 0.000000 0.000000 0.000000 0.000000 0.000000 0.000000 0.000000 0.000000 0.000000 0.000000 0.000000 0.000000 0.000000 0.000000 0.000000 0.000000 0.000000 0.000000 0.000000 0.000000 0.000000 0.000000 0.000000 0.000000 0.000000 0.000000 0.000000 0.000000 0.000000 0.000000 0.000000 0.000000 0.000000 0.000000 0.000000 0.000001 0.000003 0.000009 0.000023 0.000056 0.000129 0.000281 0.000575 0.001114 0.002043 0.003550 0.005851 0.009160 0.013639 0.019343 0.026175 0.033876 0.042063
0.033602 0.028993 0.023659 0.018277 0.013364 0.009239 0.006031 0.003713 0.002154 0.001178 0.000607 0.000295 0.000135 0.000058 0.000024 0.000009 0.000003 0.000001 0.000000 0.000000 0.000000 0.000000 0.000000 0.000000 0.000000 0.000000 0.000000 0.000000 0.000000 0.000000 0.000000 0.000000 0.000000 0.000000 0.000000 0.000000 0.000000 0.000000 0.000000 0.000000 0.000000 0.000000 0.000000 0.000000 0.000000 0.000000 0.000000 0.000000 0.000000 0.000000 0.000000 0.000000 0.000000 0.000000 0.000000 0.000000 0.000000 0.000000 0.000000 0.000000 0.000000 0.000000 0.000000 0.000000 0.000000 0.000000 0.000000 0.000000 0.000000 0.000000 0.000000 0.000000 0.000000 0.000000 0.000000 0.000000 0.000000 0.000000 0.000000 0.000000 0.000000 0.000000 0.000000 0.000000 0.000000 0.000000 0.000000 0.000000 0.000000 0.000000 0.000000 0.000000 0.000000 0.000000 0.000000 0.000000 0.000000 0.000000 0.000000 0.000000 0.000000 0.000000 0.000000 0.000000 0.000000 0.000000 0.000000 0.000000 0.000000 0.000000 0.000001 0.000003 0.000009 0.000025 0.000060 0.000138 0.000300 0.000614 0.001190 0.002182 0.003792 0.006252 0.009792 0.014587 0.020697 0.028023 0.036288 0.045084
0.035828 0.030910 0.025211 0.019465 0.014225 0.009831 0.006416 0.003950 0.002292 0.001253 0.000646 0.000314 0.000144 0.000062 0.000025 0.000010 0.000003 0.000001 0.000000 0.000000 0.000000 0.000000 0.000000 0.000000 0.000000 0.000000 0.000000 0.000000 0.000000 0.000000 0.000000 0.000000 0.000000 0.000000 0.000000 0.000000 0.000000 0.000000 0.000000 0.000000 0.000000 0.000000 0.000000 0.000000 0.000000 0.000000 0.000000 0.000000 0.000000 0.000000 0.000000 0.000000 0.000000 0.000000 0.000000 0.000000 0.000000 0.000000 0.000000 0.000000 0.000000 0.000000 0.000000 0.000000 0.000000 0.000000 0.000000 0.000000 0.000000 0.000000 0.000000 0.000000 0.000000 0.000000 0.000000 0.000000 0.000000 0.000000 0.000000 0.000000 0.000000 0.000000 0.000000 0.000000 0.000000 0.000000 0.000000 0.000000 0.000000 0.000000 0.000000 0.000000 0.000000 0.000000 0.000000 0.000000 0.000000 0.000000 0.000000 0.000000 0.000000 0.000000 0.000000 0.000000 0.000000 0.000000 0.000000 0.000000 0.000000 0.000000 0.000001 0.000004 0.000010 0.000026 0.000064 0.000147 0.000319 0.000654 0.001268 0.002327 0.004045 0.006671 0.010451 0.015574 0.022108 0.029950 0.038807 0.048246
0.038278 0.032958 0.026849 0.020712 0.015127 0.010449 0.006818 0.004197 0.002435 0.001332 0.000686 0.000333 0.000153 0.000066 0.000027 0.000010 0.000004 0.000001 0.000000 0.000000 0.000000 0.000000 0.000000 0.000000 0.000000 0.000000 0.000000 0.000000 0.000000 0.000000 0.000000 0.000000 0.000000 0.000000 0.000000 0.000000 0.000000 0.000000 0.000000 0.000000 0.000000 0.000000 0.000000 0.000000 0.000000 0.000000 0.000000 0.000000 0.000000 0.000000 0.000000 0.000000 0.000000 0.000000 0.000000 0.000000 0.000000 0.000000 0.000000 0.000000 0.000000 0.000000 0.000000 0.000000 0.000000 0.000000 0.000000 0.000000 0.000000 0.000000 0.000000 0.000000 0.000000 0.000000 0.000000 0.000000 0.000000 0.000000 0.000000 0.000000 0.000000 0.000000 0.000000 0.000000 0.000000 0.000000 0.000000 0.000000 0.000000 0.000000 0.000000 0.000000 0.000000 0.000000 0.000000 0.000000 0.000000 0.000000 0.000000 0.000000 0.000000 0.000000 0.000000 0.000000 0.000000 0.000000 0.000000 0.000000 0.000000 0.000000 0.000001 0.000004 0.000011 0.000028 0.000068 0.000157 0.000340 0.000697 0.001351 0.002478 0.004309 0.007108 0.011139 0.016606 0.023583 0.031965 0.041445 0.051562