# vtk DataFile Version 2.0
test
ASCII
DATASET STRUCTURED_POINTS
DIMENSIONS 128 128 1
ORIGIN 0 0 0
SPACING 1 1 1
POINT_DATA 16384
SCALARS values float
LOOKUP_TABLE default
0.000589 -0.002496 -0.001305 -0.001197 0.000424 0.001753 0.004095 0.005730 0.007830 0.009033 0.010596 0.012385 0.014109 0.015823 0.017214 0.019023 0.020447 0.021603 0.023246 0.024368 0.025564 0.026765 0.027606 0.028787 0.029662 0.030319 0.031194 0.031821 0.032281 0.032949 0.033365 0.033652 0.034139 0.034384 0.034630 0.034998 0.035250 0.035450 0.035777 0.036009 0.036216 0.036466 0.036687 0.036874 0.037018 0.037097 0.037105 0.036949 0.036566 0.036183 0.035668 0.034816 0.034397 0.035535 0.037243 0.036795 0.035031 0.035473 0.036172 0.035300 0.035725 0.035713 0.035467 0.035860 0.035611 0.036079 0.035979 0.036340 0.036517 0.036839 0.036952 0.037368 0.037634 0.038112 0.038389 0.038858 0.039183 0.039612 0.039921 0.040250 0.040591 0.040848 0.041113 0.041283 0.041486 0.041682 0.041798 0.041909 0.041969 0.042015 0.042039 0.041902 0.041787 0.041564 0.041250 0.040896 0.040330 0.039772 0.039107 0.038301 0.037516 0.036532 0.035523 0.034519 0.033343 0.032170 0.030977 0.029694 0.028435 0.027069 0.025611 0.024185 0.022715 0.021172 0.019629 0.017993 0.016282 0.014603 0.012875 0.011036 0.009082 0.006973 0.004855 0.003003 0.001545 0.000509 0.000009 0.000082
-0.000295 -0.000786 -0.000232 0.000291 0.001313 0.002467 0.003957 0.005345 0.006799 0.008028 0.009324 0.010690 0.012049 0.013381 0.014621 0.015917 0.017086 0.018157 0.019294 0.020280 0.021231 0.022136 0.022925 0.023743 0.024449 0.025058 0.025668 0.026183 0.026623 0.027070 0.027426 0.027722 0.028034 0.028272 0.028492 0.028726 0.028922 0.029097 0.029291 0.029458 0.029613 0.029771 0.029916 0.030038 0.030125 0.030160 0.030127 0.029994 0.029746 0.029446 0.029086 0.028697 0.028570 0.028977 0.029514 0.029396 0.028875 0.028873 0.028990 0.028773 0.028820 0.028791 0.028717 0.028791 0.028756 0.028886 0.028919 0.029066 0.029195 0.029364 0.029504 0.029728 0.029944 0.030217 0.030457 0.030741 0.030996 0.031268 0.031506 0.031739 0.031963 0.032154 0.032330 0.032469 0.032603 0.032722 0.032808 0.032873 0.032910 0.032923 0.032903 0.032815 0.032695 0.032514 0.032269 0.031965 0.031565 0.031118 0.030601 0.030006 0.029369 0.028645 0.027877 0.027072 0.026196 0.025290 0.024353 0.023372 0.022369 0.021314 0.020212 0.019097 0.017952 0.016770 0.015563 0.014309 0.013014 0.011706 0.010362 0.008961 0.007504 0.006006 0.004549 0.003253 0.002186 0.001346 0.000679 0.000014
-0.000922 0.000046 0.000630 0.001131 0.001778 0.002589 0.003550 0.004562 0.005587 0.006579 0.007576 0.008593 0.009610 0.010607 0.011573 0.012516 0.013409 0.014255 0.015074 0.015841 0.016562 0.017237 0.017863 0.018454 0.018991 0.019476 0.019922 0.020320 0.020674 0.020997 0.021278 0.021523 0.021746 0.021940 0.022114 0.022276 0.022420 0.022551 0.022676 0.022789 0.022894 0.022993 0.023083 0.023157 0.023206 0.023219 0.023183 0.023085 0.022926 0.022722 0.022496 0.022300 0.022236 0.022345 0.022479 0.022442 0.022291 0.022218 0.022190 0.022128 0.022094 0.022059 0.022024 0.022015 0.022013 0.022041 0.022077 0.022141 0.022221 0.022315 0.022420 0.022551 0.022698 0.022863 0.023033 0.023212 0.023389 0.023565 0.023731 0.023889 0.024037 0.024170 0.024287 0.024388 0.024476 0.024551 0.024608 0.024646 0.024665 0.024662 0.024632 0.024566 0.024466 0.024326 0.024141 0.023908 0.023622 0.023290 0.022908 0.022478 0.022003 0.021481 0.020918 0.020320 0.019682 0.019014 0.018317 0.017592 0.016840 0.016057 0.015247 0.014415 0.013562 0.012684 0.011783 0.010855 0.009904 0.008935 0.007947 0.006940 0.005925 0.004928 0.003999 0.003189 0.002516 0.001942 0.001347 0.000514
0.000675 0.001142 0.001447 0.001699 0.002015 0.002452 0.003010 0.003649 0.004330 0.005027 0.005736 0.006456 0.007175 0.007884 0.008574 0.009242 0.009881 0.010492 0.011074 0.011625 0.012143 0.012629 0.013083 0.013505 0.013894 0.014248 0.014571 0.014863 0.015125 0.015360 0.015569 0.015753 0.015917 0.016061 0.016189 0.016304 0.016406 0.016497 0.016579 0.016652 0.016718 0.016778 0.016831 0.016873 0.016899 0.016902 0.016874 0.016811 0.016713 0.016588 0.016454 0.016342 0.016287 0.016292 0.016307 0.016277 0.016213 0.016159 0.016119 0.016081 0.016047 0.016016 0.015988 0.015968 0.015959 0.015963 0.015980 0.016011 0.016055 0.016110 0.016176 0.016256 0.016348 0.016449 0.016558 0.016670 0.016784 0.016896 0.017005 0.017108 0.017205 0.017292 0.017370 0.017437 0.017495 0.017542 0.017577 0.017599 0.017607 0.017599 0.017571 0.017521 0.017445 0.017343 0.017210 0.017044 0.016845 0.016612 0.016345 0.016046 0.015714 0.015351 0.014958 0.014539 0.014093 0.013623 0.013131 0.012619 0.012085 0.011530 0.010956 0.010365 0.009757 0.009132 0.008490 0.007832 0.007161 0.006482 0.005802 0.005130 0.004488 0.003902 0.003407 0.003025 0.002747 0.002510 0.002187 0.001594
0.001724 0.002159 0.002253 0.002211 0.002191 0.002275 0.002483 0.002796 0.003183 0.003614 0.004073 0.004547 0.005026 0.005500 0.005964 0.006413 0.006845 0.007258 0.007653 0.008027 0.008380 0.008711 0.009021 0.009310 0.009577 0.009822 0.010046 0.010249 0.010432 0.010597 0.010745 0.010875 0.010991 0.011092 0.011182 0.011261 0.011330 0.011390 0.011442 0.011488 0.011528 0.011562 0.011591 0.011613 0.011625 0.011624 0.011607 0.011569 0.011513 0.011441 0.011365 0.011298 0.011252 0.011227 0.011208 0.011179 0.011142 0.011106 0.011076 0.011050 0.011026 0.011002 0.010980 0.010962 0.010951 0.010947 0.010953 0.010968 0.010992 0.011023 0.011063 0.011111 0.011166 0.011227 0.011293 0.011361 0.011431 0.011501 0.011568 0.011633 0.011694 0.011750 0.011799 0.011842 0.011879 0.011908 0.011929 0.011941 0.011944 0.011935 0.011913 0.011876 0.011823 0.011752 0.011662 0.011550 0.011417 0.011263 0.011086 0.010887 0.010668 0.010427 0.010167 0.009888 0.009591 0.009277 0.008948 0.008603 0.008243 0.007869 0.007481 0.007081 0.006668 0.006244 0.005808 0.005364 0.004916 0.004470 0.004038 0.003639 0.003298 0.003046 0.002914 0.002912 0.003019 0.003161 0.003209 0.002999
0.003072 0.003287 0.003112 0.002763 0.002415 0.002173 0.002075 0.002112 0.002254 0.002469 0.002728 0.003014 0.003310 0.003608 0.003902 0.004188 0.004464 0.004728 0.004981 0.005221 0.005449 0.005663 0.005864 0.006051 0.006225 0.006385 0.006532 0.006666 0.006787 0.006897 0.006995 0.007083 0.007160 0.007228 0.007287 0.007338 0.007383 0.007421 0.007453 0.007480 0.007503 0.007522 0.007537 0.007547 0.007552 0.007550 0.007539 0.007518 0.007488 0.007449 0.007407 0.007367 0.007334 0.007307 0.007283 0.007260 0.007235 0.007213 0.007193 0.007176 0.007160 0.007144 0.007128 0.007115 0.007105 0.007100 0.007101 0.007108 0.007121 0.007139 0.007162 0.007190 0.007222 0.007258 0.007296 0.007337 0.007378 0.007419 0.007460 0.007499 0.007536 0.007569 0.007600 0.007626 0.007648 0.007666 0.007678 0.007684 0.007684 0.007676 0.007660 0.007635 0.007600 0.007554 0.007496 0.007425 0.007341 0.007243 0.007132 0.007007 0.006869 0.006718 0.006554 0.006378 0.006190 0.005991 0.005782 0.005562 0.005332 0.005092 0.004843 0.004586 0.004320 0.004047 0.003767 0.003484 0.003204 0.002935 0.002695 0.002506 0.002402 0.002419 0.002589 0.002926 0.003402 0.003938 0.004392 0.004572
0.004337 0.004488 0.004058 0.003395 0.002729 0.002188 0.001824 0.001631 0.001579 0.001627 0.001739 0.001888 0.002056 0.002231 0.002405 0.002577 0.002743 0.002904 0.003057 0.003203 0.003342 0.003473 0.003596 0.003711 0.003817 0.003916 0.004007 0.004091 0.004167 0.004236 0.004297 0.004352 0.004401 0.004443 0.004480 0.004512 0.004539 0.004562 0.004580 0.004596 0.004608 0.004618 0.004624 0.004629 0.004630 0.004628 0.004621 0.004610 0.004595 0.004575 0.004552 0.004529 0.004507 0.004487 0.004469 0.004452 0.004437 0.004423 0.004412 0.004402 0.004392 0.004381 0.004371 0.004362 0.004355 0.004351 0.004350 0.004353 0.004360 0.004370 0.004383 0.004399 0.004418 0.004438 0.004460 0.004483 0.004506 0.004530 0.004553 0.004576 0.004597 0.004617 0.004635 0.004650 0.004663 0.004673 0.004679 0.004682 0.004681 0.004675 0.004665 0.004648 0.004626 0.004598 0.004562 0.004519 0.004469 0.004410 0.004344 0.004270 0.004187 0.004097 0.003999 0.003894 0.003781 0.003662 0.003536 0.003403 0.003264 0.003118 0.002967 0.002810 0.002649 0.002482 0.002313 0.002146 0.001985 0.001845 0.001745 0.001714 0.001792 0.002025 0.002451 0.003089 0.003917 0.004852 0.005746 0.006395
0.006418 0.005945 0.005108 0.004108 0.003134 0.002320 0.001724 0.001343 0.001139 0.001064 0.001071 0.001127 0.001208 0.001302 0.001399 0.001496 0.001591 0.001682 0.001770 0.001855 0.001935 0.002010 0.002081 0.002148 0.002210 0.002267 0.002320 0.002369 0.002414 0.002454 0.002490 0.002523 0.002551 0.002576 0.002598 0.002616 0.002632 0.002644 0.002655 0.002663 0.002669 0.002674 0.002676 0.002678 0.002677 0.002675 0.002672 0.002666 0.002658 0.002648 0.002637 0.002624 0.002611 0.002598 0.002586 0.002576 0.002567 0.002560 0.002554 0.002548 0.002542 0.002536 0.002530 0.002524 0.002519 0.002516 0.002515 0.002517 0.002520 0.002526 0.002533 0.002542 0.002552 0.002563 0.002575 0.002588 0.002601 0.002614 0.002627 0.002640 0.002652 0.002663 0.002673 0.002681 0.002688 0.002693 0.002696 0.002697 0.002696 0.002692 0.002685 0.002676 0.002662 0.002646 0.002625 0.002601 0.002572 0.002539 0.002501 0.002459 0.002412 0.002361 0.002306 0.002246 0.002182 0.002114 0.002042 0.001967 0.001887 0.001804 0.001717 0.001627 0.001534 0.001439 0.001345 0.001254 0.001175 0.001124 0.001123 0.001207 0.001426 0.001832 0.002478 0.003390 0.004553 0.005888 0.007245 0.008422
0.008093 0.007373 0.006207 0.004878 0.003610 0.002545 0.001746 0.001208 0.000885 0.000719 0.000654 0.000649 0.000676 0.000719 0.000768 0.000819 0.000870 0.000920 0.000968 0.001013 0.001057 0.001098 0.001137 0.001173 0.001207 0.001238 0.001267 0.001294 0.001318 0.001341 0.001361 0.001379 0.001394 0.001408 0.001420 0.001430 0.001438 0.001445 0.001450 0.001454 0.001457 0.001459 0.001460 0.001460 0.001459 0.001458 0.001456 0.001453 0.001449 0.001444 0.001438 0.001431 0.001424 0.001417 0.001410 0.001405 0.001400 0.001396 0.001393 0.001391 0.001387 0.001384 0.001380 0.001377 0.001374 0.001372 0.001371 0.001372 0.001373 0.001376 0.001380 0.001385 0.001391 0.001397 0.001403 0.001410 0.001417 0.001424 0.001431 0.001438 0.001444 0.001450 0.001455 0.001460 0.001463 0.001466 0.001467 0.001467 0.001466 0.001463 0.001459 0.001454 0.001446 0.001437 0.001426 0.001412 0.001397 0.001379 0.001359 0.001336 0.001311 0.001284 0.001254 0.001222 0.001188 0.001151 0.001113 0.001072 0.001029 0.000984 0.000937 0.000889 0.000839 0.000788 0.000740 0.000698 0.000672 0.000679 0.000747 0.000917 0.001245 0.001797 0.002636 0.003801 0.005286 0.007015 0.008837 0.010542
0.009930 0.008857 0.007339 0.005685 0.004133 0.002835 0.001855 0.001183 0.000765 0.000530 0.000416 0.000371 0.000365 0.000378 0.000399 0.000424 0.000449 0.000474 0.000499 0.000522 0.000544 0.000565 0.000585 0.000604 0.000621 0.000637 0.000652 0.000666 0.000679 0.000690 0.000700 0.000710 0.000718 0.000725 0.000731 0.000736 0.000740 0.000743 0.000746 0.000748 0.000749 0.000749 0.000750 0.000749 0.000749 0.000748 0.000747 0.000745 0.000743 0.000741 0.000738 0.000734 0.000731 0.000727 0.000724 0.000721 0.000719 0.000717 0.000716 0.000715 0.000713 0.000711 0.000709 0.000707 0.000705 0.000704 0.000704 0.000704 0.000705 0.000706 0.000708 0.000711 0.000714 0.000717 0.000720 0.000724 0.000728 0.000731 0.000735 0.000738 0.000741 0.000744 0.000747 0.000749 0.000751 0.000752 0.000752 0.000752 0.000751 0.000750 0.000748 0.000744 0.000741 0.000736 0.000730 0.000723 0.000715 0.000706 0.000696 0.000684 0.000671 0.000658 0.000643 0.000626 0.000609 0.000590 0.000571 0.000550 0.000528 0.000505 0.000482 0.000457 0.000432 0.000408 0.000387 0.000374 0.000381 0.000427 0.000542 0.000776 0.001194 0.001873 0.002888 0.004291 0.006085 0.008198 0.010484 0.012745
0.011885 0.010375 0.008486 0.006510 0.004685 0.003167 0.002020 0.001229 0.000730 0.000443 0.000292 0.000222 0.000195 0.000191 0.000197 0.000207 0.000218 0.000230 0.000242 0.000253 0.000264 0.000274 0.000284 0.000293 0.000301 0.000309 0.000316 0.000323 0.000329 0.000334 0.000339 0.000344 0.000347 0.000351 0.000354 0.000356 0.000358 0.000359 0.000361 0.000361 0.000362 0.000362 0.000362 0.000362 0.000361 0.000361 0.000360 0.000359 0.000358 0.000357 0.000356 0.000354 0.000352 0.000351 0.000349 0.000348 0.000347 0.000346 0.000346 0.000345 0.000345 0.000344 0.000343 0.000342 0.000341 0.000340 0.000340 0.000340 0.000340 0.000341 0.000342 0.000343 0.000344 0.000346 0.000348 0.000350 0.000351 0.000353 0.000355 0.000357 0.000358 0.000360 0.000361 0.000362 0.000363 0.000363 0.000363 0.000363 0.000362 0.000362 0.000360 0.000359 0.000357 0.000354 0.000351 0.000348 0.000344 0.000340 0.000335 0.000330 0.000323 0.000317 0.000310 0.000302 0.000294 0.000285 0.000275 0.000265 0.000255 0.000244 0.000233 0.000221 0.000210 0.000200 0.000194 0.000199 0.000226 0.000296 0.000447 0.000733 0.001228 0.002021 0.003202 0.004833 0.006925 0.009408 0.012129 0.014877
0.013735 0.011850 0.009621 0.007340 0.005255 0.003527 0.002222 0.001321 0.000749 0.000416 0.000237 0.000148 0.000110 0.000096 0.000093 0.000096 0.000100 0.000105 0.000110 0.000116 0.000120 0.000125 0.000129 0.000133 0.000137 0.000141 0.000144 0.000147 0.000149 0.000152 0.000154 0.000156 0.000158 0.000159 0.000161 0.000162 0.000163 0.000163 0.000164 0.000164 0.000164 0.000164 0.000164 0.000164 0.000164 0.000163 0.000163 0.000163 0.000162 0.000162 0.000161 0.000160 0.000159 0.000159 0.000158 0.000158 0.000157 0.000157 0.000157 0.000157 0.000156 0.000156 0.000155 0.000155 0.000154 0.000154 0.000154 0.000154 0.000154 0.000154 0.000155 0.000155 0.000156 0.000157 0.000158 0.000159 0.000159 0.000160 0.000161 0.000162 0.000163 0.000163 0.000164 0.000164 0.000165 0.000165 0.000165 0.000165 0.000164 0.000164 0.000163 0.000162 0.000161 0.000160 0.000159 0.000157 0.000156 0.000154 0.000152 0.000149 0.000146 0.000143 0.000140 0.000137 0.000133 0.000129 0.000125 0.000120 0.000116 0.000111 0.000106 0.000101 0.000096 0.000094 0.000096 0.000111 0.000150 0.000239 0.000417 0.000747 0.001313 0.002216 0.003556 0.005410 0.007793 0.010633 0.013758 0.016917
0.015344 0.013239 0.010731 0.008169 0.005835 0.003904 0.002447 0.001439 0.000798 0.000423 0.000220 0.000117 0.000070 0.000050 0.000043 0.000042 0.000043 0.000045 0.000047 0.000049 0.000051 0.000053 0.000055 0.000057 0.000059 0.000060 0.000061 0.000063 0.000064 0.000065 0.000066 0.000067 0.000067 0.000068 0.000068 0.000069 0.000069 0.000069 0.000070 0.000070 0.000070 0.000070 0.000070 0.000070 0.000070 0.000069 0.000069 0.000069 0.000069 0.000069 0.000068 0.000068 0.000068 0.000067 0.000067 0.000067 0.000067 0.000067 0.000067 0.000067 0.000067 0.000066 0.000066 0.000066 0.000066 0.000065 0.000065 0.000065 0.000065 0.000065 0.000066 0.000066 0.000066 0.000067 0.000067 0.000067 0.000068 0.000068 0.000069 0.000069 0.000069 0.000070 0.000070 0.000070 0.000070 0.000070 0.000070 0.000070 0.000070 0.000070 0.000069 0.000069 0.000068 0.000068 0.000067 0.000067 0.000066 0.000065 0.000064 0.000063 0.000062 0.000061 0.000059 0.000058 0.000056 0.000055 0.000053 0.000051 0.000049 0.000047 0.000045 0.000043 0.000042 0.000043 0.000050 0.000070 0.000118 0.000221 0.000424 0.000795 0.001429 0.002438 0.003936 0.006011 0.008683 0.011878 0.015412 0.019018
0.016912 0.014599 0.011830 0.009002 0.006425 0.004294 0.002686 0.001573 0.000865 0.000449 0.000222 0.000108 0.000054 0.000031 0.000021 0.000018 0.000018 0.000018 0.000019 0.000020 0.000021 0.000021 0.000022 0.000023 0.000023 0.000024 0.000025 0.000025 0.000025 0.000026 0.000026 0.000027 0.000027 0.000027 0.000027 0.000027 0.000028 0.000028 0.000028 0.000028 0.000028 0.000028 0.000028 0.000028 0.000028 0.000028 0.000028 0.000027 0.000027 0.000027 0.000027 0.000027 0.000027 0.000027 0.000027 0.000027 0.000027 0.000027 0.000027 0.000027 0.000026 0.000026 0.000026 0.000026 0.000026 0.000026 0.000026 0.000026 0.000026 0.000026 0.000026 0.000026 0.000026 0.000026 0.000027 0.000027 0.000027 0.000027 0.000027 0.000027 0.000028 0.000028 0.000028 0.000028 0.000028 0.000028 0.000028 0.000028 0.000028 0.000028 0.000028 0.000027 0.000027 0.000027 0.000027 0.000027 0.000026 0.000026 0.000025 0.000025 0.000025 0.000024 0.000024 0.000023 0.000022 0.000022 0.000021 0.000020 0.000019 0.000019 0.000018 0.000018 0.000018 0.000021 0.000031 0.000054 0.000109 0.000224 0.000449 0.000861 0.001562 0.002678 0.004336 0.006634 0.009599 0.013153 0.017098 0.021145
0.018517 0.015974 0.012942 0.009848 0.007029 0.004697 0.002937 0.001717 0.000941 0.000484 0.000235 0.000109 0.000050 0.000023 0.000012 0.000008 0.000007 0.000007 0.000007 0.000007 0.000008 0.000008 0.000008 0.000009 0.000009 0.000009 0.000009 0.000009 0.000009 0.000010 0.000010 0.000010 0.000010 0.000010 0.000010 0.000010 0.000010 0.000010 0.000010 0.000010 0.000010 0.000010 0.000010 0.000010 0.000010 0.000010 0.000010 0.000010 0.000010 0.000010 0.000010 0.000010 0.000010 0.000010 0.000010 0.000010 0.000010 0.000010 0.000010 0.000010 0.000010 0.000010 0.000010 0.000010 0.000010 0.000010 0.000010 0.000010 0.000010 0.000010 0.000010 0.000010 0.000010 0.000010 0.000010 0.000010 0.000010 0.000010 0.000010 0.000010 0.000010 0.000010 0.000010 0.000010 0.000010 0.000010 0.000010 0.000010 0.000010 0.000010 0.000010 0.000010 0.000010 0.000010 0.000010 0.000010 0.000010 0.000010 0.000009 0.000009 0.000009 0.000009 0.000009 0.000009 0.000008 0.000008 0.000008 0.000008 0.000007 0.000007 0.000007 0.000007 0.000008 0.000012 0.000023 0.000050 0.000111 0.000237 0.000485 0.000936 0.001705 0.002930 0.004752 0.007279 0.010545 0.014468 0.018836 0.023338
0.020121 0.017389 0.014092 0.010721 0.007651 0.005114 0.003196 0.001868 0.001022 0.000524 0.000253 0.000115 0.000050 0.000021 0.000009 0.000005 0.000003 0.000003 0.000003 0.000003 0.000003 0.000003 0.000003 0.000003 0.000003 0.000003 0.000003 0.000003 0.000003 0.000003 0.000003 0.000003 0.000003 0.000004 0.000004 0.000004 0.000004 0.000004 0.000004 0.000004 0.000004 0.000004 0.000004 0.000004 0.000004 0.000004 0.000004 0.000004 0.000004 0.000003 0.000003 0.000003 0.000003 0.000003 0.000003 0.000003 0.000003 0.000003 0.000003 0.000003 0.000003 0.000003 0.000003 0.000003 0.000003 0.000003 0.000003 0.000003 0.000003 0.000003 0.000003 0.000003 0.000003 0.000003 0.000003 0.000003 0.000003 0.000004 0.000004 0.000004 0.000004 0.000004 0.000004 0.000004 0.000004 0.000004 0.000004 0.000004 0.000004 0.000004 0.000004 0.000004 0.000003 0.000003 0.000003 0.000003 0.000003 0.000003 0.000003 0.000003 0.000003 0.000003 0.000003 0.000003 0.000003 0.000003 0.000003 0.000003 0.000003 0.000002 0.000003 0.000003 0.000005 0.000009 0.000021 0.000051 0.000117 0.000255 0.000525 0.001017 0.001857 0.003194 0.005184 0.007949 0.011528 0.015839 0.020653 0.025624
0.021907 0.018912 0.015306 0.011632 0.008296 0.005544 0.003465 0.002025 0.001108 0.000568 0.000273 0.000124 0.000053 0.000022 0.000008 0.000003 0.000002 0.000001 0.000001 0.000001 0.000001 0.000001 0.000001 0.000001 0.000001 0.000001 0.000001 0.000001 0.000001 0.000001 0.000001 0.000001 0.000001 0.000001 0.000001 0.000001 0.000001 0.000001 0.000001 0.000001 0.000001 0.000001 0.000001 0.000001 0.000001 0.000001 0.000001 0.000001 0.000001 0.000001 0.000001 0.000001 0.000001 0.000001 0.000001 0.000001 0.000001 0.000001 0.000001 0.000001 0.000001 0.000001 0.000001 0.000001 0.000001 0.000001 0.000001 0.000001 0.000001 0.000001 0.000001 0.000001 0.000001 0.000001 0.000001 0.000001 0.000001 0.000001 0.000001 0.000001 0.000001 0.000001 0.000001 0.000001 0.000001 0.000001 0.000001 0.000001 0.000001 0.000001 0.000001 0.000001 0.000001 0.000001 0.000001 0.000001 0.000001 0.000001 0.000001 0.000001 0.000001 0.000001 0.000001 0.000001 0.000001 0.000001 0.000001 0.000001 0.000001 0.000001 0.000001 0.000002 0.000003 0.000009 0.000022 0.000054 0.000126 0.000276 0.000568 0.001103 0.002014 0.003467 0.005632 0.008645 0.012555 0.017279 0.022582 0.028099
0.024057 0.020589 0.016593 0.012584 0.008965 0.005988 0.003742 0.002187 0.001196 0.000613 0.000295 0.000133 0.000057 0.000023 0.000009 0.000003 0.000001 0.000001 0.000000 0.000000 0.000000 0.000000 0.000000 0.000000 0.000000 0.000000 0.000000 0.000000 0.000000 0.000000 0.000000 0.000000 0.000000 0.000000 0.000000 0.000000 0.000000 0.000000 0.000000 0.000000 0.000000 0.000000 0.000000 0.000000 0.000000 0.000000 0.000000 0.000000 0.000000 0.000000 0.000000 0.000000 0.000000 0.000000 0.000000 0.000000 0.000000 0.000000 0.000000 0.000000 0.000000 0.000000 0.000000 0.000000 0.000000 0.000000 0.000000 0.000000 0.000000 0.000000 0.000000 0.000000 0.000000 0.000000 0.000000 0.000000 0.000000 0.000000 0.000000 0.000000 0.000000 0.000000 0.000000 0.000000 0.000000 0.000000 0.000000 0.000000 0.000000 0.000000 0.000000 0.000000 0.000000 0.000000 0.000000 0.000000 0.000000 0.000000 0.000000 0.000000 0.000000 0.000000 0.000000 0.000000 0.000000 0.000000 0.000000 0.000000 0.000000 0.000000 0.000001 0.000001 0.000003 0.000009 0.000023 0.000058 0.000135 0.000297 0.000614 0.001191 0.002177 0.003750 0.006097 0.009369 0.013625 0.018790 0.024631 0.030799
0.026215 0.022323 0.017930 0.013569 0.009655 0.006445 0.004027 0.002354 0.001287 0.000660 0.000317 0.000143 0.000061 0.000024 0.000009 0.000003 0.000001 0.000000 0.000000 0.000000 0.000000 0.000000 0.000000 0.000000 0.000000 0.000000 0.000000 0.000000 0.000000 0.000000 0.000000 0.000000 0.000000 0.000000 0.000000 0.000000 0.000000 0.000000 0.000000 0.000000 0.000000 0.000000 0.000000 0.000000 0.000000 0.000000 0.000000 0.000000 0.000000 0.000000 0.000000 0.000000 0.000000 0.000000 0.000000 0.000000 0.000000 0.000000 0.000000 0.000000 0.000000 0.000000 0.000000 0.000000 0.000000 0.000000 0.000000 0.000000 0.000000 0.000000 0.000000 0.000000 0.000000 0.000000 0.000000 0.000000 0.000000 0.000000 0.000000 0.000000 0.000000 0.000000 0.000000 0.000000 0.000000 0.000000 0.000000 0.000000 0.000000 0.000000 0.000000 0.000000 0.000000 0.000000 0.000000 0.000000 0.000000 0.000000 0.000000 0.000000 0.000000 0.000000 0.000000 0.000000 0.000000 0.000000 0.000000 0.000000 0.000000 0.000000 0.000000 0.000001 0.000003 0.000009 0.000025 0.000062 0.000145 0.000320 0.000661 0.001283 0.002346 0.004043 0.006579 0.010119 0.014735 0.020356 0.026744 0.033538
0.028385 0.024086 0.019298 0.014580 0.010364 0.006914 0.004320 0.002525 0.001381 0.000708 0.000340 0.000154 0.000065 0.000026 0.000010 0.000003 0.000001 0.000000 0.000000 0.000000 0.000000 0.000000 0.000000 0.000000 0.000000 0.000000 0.000000 0.000000 0.000000 0.000000 0.000000 0.000000 0.000000 0.000000 0.000000 0.000000 0.000000 0.000000 0.000000 0.000000 0.000000 0.000000 0.000000 0.000000 0.000000 0.000000 0.000000 0.000000 0.000000 0.000000 0.000000 0.000000 0.000000 0.000000 0.000000 0.000000 0.000000 0.000000 0.000000 0.000000 0.000000 0.000000 0.000000 0.000000 0.000000 0.000000 0.000000 0.000000 0.000000 0.000000 0.000000 0.000000 0.000000 0.000000 0.000000 0.000000 0.000000 0.000000 0.000000 0.000000 0.000000 0.000000 0.000000 0.000000 0.000000 0.000000 0.000000 0.000000 0.000000 0.000000 0.000000 0.000000 0.000000 0.000000 0.000000 0.000000 0.000000 0.000000 0.000000 0.000000 0.000000 0.000000 0.000000 0.000000 0.000000 0.000000 0.000000 0.000000 0.000000 0.000000 0.000000 0.000001 0.000003 0.000010 0.000027 0.000066 0.000156 0.000343 0.000709 0.001378 0.002520 0.004346 0.007077 0.010894 0.015881 0.021967 0.028905 0.036313
0.030510 0.025853 0.020688 0.015614 0.011091 0.007396 0.004621 0.002702 0.001478 0.000758 0.000364 0.000164 0.000070 0.000028 0.000010 0.000004 0.000001 0.000000 0.000000 0.000000 0.000000 0.000000 0.000000 0.000000 0.000000 0.000000 0.000000 0.000000 0.000000 0.000000 0.000000 0.000000 0.000000 0.000000 0.000000 0.000000 0.000000 0.000000 0.000000 0.000000 0.000000 0.000000 0.000000 0.000000 0.000000 0.000000 0.000000 0.000000 0.000000 0.000000 0.000000 0.000000 0.000000 0.000000 0.000000 0.000000 0.000000 0.000000 0.000000 0.000000 0.000000 0.000000 0.000000 0.000000 0.000000 0.000000 0.000000 0.000000 0.000000 0.000000 0.000000 0.000000 0.000000 0.000000 0.000000 0.000000 0.000000 0.000000 0.000000 0.000000 0.000000 0.000000 0.000000 0.000000 0.000000 0.000000 0.000000 0.000000 0.000000 0.000000 0.000000 0.000000 0.000000 0.000000 0.000000 0.000000 0.000000 0.000000 0.000000 0.000000 0.000000 0.000000 0.000000 0.000000 0.000000 0.000000 0.000000 0.000000 0.000000 0.000000 0.000000 0.000001 0.000004 0.000011 0.000028 0.000071 0.000167 0.000368 0.000760 0.001476 0.002701 0.004661 0.007593 0.011696 0.017064 0.023623 0.031106 0.039093
0.032617 0.027636 0.022105 0.016674 0.011838 0.007892 0.004931 0.002884 0.001578 0.000809 0.000389 0.000176 0.000074 0.000030 0.000011 0.000004 0.000001 0.000000 0.000000 0.000000 0.000000 0.000000 0.000000 0.000000 0.000000 0.000000 0.000000 0.000000 0.000000 0.000000 0.000000 0.000000 0.000000 0.000000 0.000000 0.000000 0.000000 0.000000 0.000000 0.000000 0.000000 0.000000 0.000000 0.000000 0.000000 0.000000 0.000000 0.000000 0.000000 0.000000 0.000000 0.000000 0.000000 0.000000 0.000000 0.000000 0.000000 0.000000 0.000000 0.000000 0.000000 0.000000 0.000000 0.000000 0.000000 0.000000 0.000000 0.000000 0.000000 0.000000 0.000000 0.000000 0.000000 0.000000 0.000000 0.000000 0.000000 0.000000 0.000000 0.000000 0.000000 0.000000 0.000000 0.000000 0.000000 0.000000 0.000000 0.000000 0.000000 0.000000 0.000000 0.000000 0.000000 0.000000 0.000000 0.000000 0.000000 0.000000 0.000000 0.000000 0.000000 0.000000 0.000000 0.000000 0.000000 0.000000 0.000000 0.000000 0.000000 0.000000 0.000000 0.000001 0.000004 0.000011 0.000030 0.000076 0.000179 0.000393 0.000812 0.001579 0.002889 0.004987 0.008128 0.012527 0.018287 0.025332 0.033380 0.041979
0.034769 0.029472 0.023568 0.017770 0.012612 0.008406 0.005252 0.003072 0.001682 0.000863 0.000415 0.000187 0.000079 0.000032 0.000012 0.000004 0.000001 0.000000 0.000000 0.000000 0.000000 0.000000 0.000000 0.000000 0.000000 0.000000 0.000000 0.000000 0.000000 0.000000 0.000000 0.000000 0.000000 0.000000 0.000000 0.000000 0.000000 0.000000 0.000000 0.000000 0.000000 0.000000 0.000000 0.000000 0.000000 0.000000 0.000000 0.000000 0.000000 0.000000 0.000000 0.000000 0.000000 0.000000 0.000000 0.000000 0.000000 0.000000 0.000000 0.000000 0.000000 0.000000 0.000000 0.000000 0.000000 0.000000 0.000000 0.000000 0.000000 0.000000 0.000000 0.000000 0.000000 0.000000 0.000000 0.000000 0.000000 0.000000 0.000000 0.000000 0.000000 0.000000 0.000000 0.000000 0.000000 0.000000 0.000000 0.000000 0.000000 0.000000 0.000000 0.000000 0.000000 0.000000 0.000000 0.000000 0.000000 0.000000 0.000000 0.000000 0.000000 0.000000 0.000000 0.000000 0.000000 0.000000 0.000000 0.000000 0.000000 0.000000 0.000000 0.000001 0.000004 0.000012 0.000032 0.000081 0.000191 0.000420 0.000867 0.001685 0.003085 0.005326 0.008684 0.013390 0.019557 0.027107 0.035739 0.044972
0.037054 0.031403 0.025099 0.018913 0.013417 0.008941 0.005586 0.003268 0.001790 0.000919 0.000442 0.000199 0.000084 0.000034 0.000012 0.000004 0.000001 0.000000 0.000000 0.000000 0.000000 0.000000 0.000000 0.000000 0.000000 0.000000 0.000000 0.000000 0.000000 0.000000 0.000000 0.000000 0.000000 0.000000 0.000000 0.000000 0.000000 0.000000 0.000000 0.000000 0.000000 0.000000 0.000000 0.000000 0.000000 0.000000 0.000000 0.000000 0.000000 0.000000 0.000000 0.000000 0.000000 0.000000 0.000000 0.000000 0.000000 0.000000 0.000000 0.000000 0.000000 0.000000 0.000000 0.000000 0.000000 0.000000 0.000000 0.000000 0.000000 0.000000 0.000000 0.000000 0.000000 0.000000 0.000000 0.000000 0.000000 0.000000 0.000000 0.000000 0.000000 0.000000 0.000000 0.000000 0.000000 0.000000 0.000000 0.000000 0.000000 0.000000 0.000000 0.000000 0.000000 0.000000 0.000000 0.000000 0.000000 0.000000 0.000000 0.000000 0.000000 0.000000 0.000000 0.000000 0.000000 0.000000 0.000000 0.000000 0.000000 0.000000 0.000000 0.000001 0.000004 0.000013 0.000035 0.000087 0.000203 0.000447 0.000924 0.001797 0.003290 0.005681 0.009265 0.014291 0.020882 0.028958 0.038202 0.048103
0.039563 0.033466 0.026715 0.020114 0.014260 0.009499 0.005934 0.003472 0.001902 0.000976 0.000470 0.000212 0.000090 0.000036 0.000013 0.000005 0.000001 0.000000 0.000000 0.000000 0.000000 0.000000 0.000000 0.000000 0.000000 0.000000 0.000000 0.000000 0.000000 0.000000 0.000000 0.000000 0.000000 0.000000 0.000000 0.000000 0.000000 0.000000 0.000000 0.000000 0.000000 0.000000 0.000000 0.000000 0.000000 0.000000 0.000000 0.000000 0.000000 0.000000 0.000000 0.000000 0.000000 0.000000 0.000000 0.000000 0.000000 0.000000 0.000000 0.000000 0.000000 0.000000 0.000000 0.000000 0.000000 0.000000 0.000000 0.000000 0.000000 0.000000 0.000000 0.000000 0.000000 0.000000 0.000000 0.000000 0.000000 0.000000 0.000000 0.000000 0.000000 0.000000 0.000000 0.000000 0.000000 0.000000 0.000000 0.000000 0.000000 0.000000 0.000000 0.000000 0.000000 0.000000 0.000000 0.000000 0.000000 0.000000 0.000000 0.000000 0.000000 0.000000 0.000000 0.000000 0.000000 0.000000 0.000000 0.000000 0.000000 0.000000 0.000000 0.000002 0.000005 0.000014 0.000037 0.000092 0.000216 0.000476 0.000984 0.001913 0.003503 0.006051 0.009872 0.015232 0.022267 0.030895 0.040783 0.051392